Program Version,EnergyPlus, Version 9.0.1-bb7ca4f0da, YMD=2021.02.21 22:40
1,5,Environment Title[],Latitude[deg],Longitude[deg],Time Zone[],Elevation[m]
2,8,Day of Simulation[],Month[],Day of Month[],DST Indicator[1=yes 0=no],Hour[],StartMinute[],EndMinute[],DayType
3,5,Cumulative Day of Simulation[],Month[],Day of Month[],DST Indicator[1=yes 0=no],DayType  ! When Daily Meters Requested
4,2,Cumulative Days of Simulation[],Month[]  ! When Monthly Meters Requested
5,1,Cumulative Days of Simulation[] ! When Run Period Meters Requested
6,1,Calendar Year of Simulation[] ! When Annual Meters Requested
47,9,Electricity:Facility [J] !Monthly [Value,Min,Day,Hour,Minute,Max,Day,Hour,Minute]
209,9,InteriorEquipment:Electricity [J] !Monthly [Value,Min,Day,Hour,Minute,Max,Day,Hour,Minute]
83,9,InteriorLights:Electricity [J] !Monthly [Value,Min,Day,Hour,Minute,Max,Day,Hour,Minute]
49,11,Electricity:Facility [J] !RunPeriod [Value,Min,Month,Day,Hour,Minute,Max,Month,Day,Hour,Minute]
211,11,InteriorEquipment:Electricity [J] !RunPeriod [Value,Min,Month,Day,Hour,Minute,Max,Month,Day,Hour,Minute]
85,11,InteriorLights:Electricity [J] !RunPeriod [Value,Min,Month,Day,Hour,Minute,Max,Month,Day,Hour,Minute]
835,1,DistrictHeating:Facility [J] !Hourly
1022,1,DistrictCooling:Facility [J] !Hourly
1024,9,DistrictCooling:Facility [J] !Monthly [Value,Min,Day,Hour,Minute,Max,Day,Hour,Minute]
837,9,DistrictHeating:Facility [J] !Monthly [Value,Min,Day,Hour,Minute,Max,Day,Hour,Minute]
1123,9,Carbon Equivalent:Facility [kg] !Monthly [Value,Min,Day,Hour,Minute,Max,Day,Hour,Minute]
1026,11,DistrictCooling:Facility [J] !RunPeriod [Value,Min,Month,Day,Hour,Minute,Max,Month,Day,Hour,Minute]
839,11,DistrictHeating:Facility [J] !RunPeriod [Value,Min,Month,Day,Hour,Minute,Max,Month,Day,Hour,Minute]
1125,11,Carbon Equivalent:Facility [kg] !RunPeriod [Value,Min,Month,Day,Hour,Minute,Max,Month,Day,Hour,Minute]
End of Data Dictionary
1,LAB_PART1 (O1-O1:31-12),  45.22,   7.65,   1.00, 287.00
2,1, 1, 1, 0, 1, 0.00,60.00,Sunday
835,0.0
1022,0.0
2,1, 1, 1, 0, 2, 0.00,60.00,Sunday
835,0.0
1022,0.0
2,1, 1, 1, 0, 3, 0.00,60.00,Sunday
835,0.0
1022,0.0
2,1, 1, 1, 0, 4, 0.00,60.00,Sunday
835,0.0
1022,0.0
2,1, 1, 1, 0, 5, 0.00,60.00,Sunday
835,0.0
1022,0.0
2,1, 1, 1, 0, 6, 0.00,60.00,Sunday
835,31326800.78805843
1022,0.0
2,1, 1, 1, 0, 7, 0.00,60.00,Sunday
835,27081202.46971922
1022,0.0
2,1, 1, 1, 0, 8, 0.00,60.00,Sunday
835,110696426.569362
1022,0.0
2,1, 1, 1, 0, 9, 0.00,60.00,Sunday
835,99755553.46325776
1022,0.0
2,1, 1, 1, 0,10, 0.00,60.00,Sunday
835,86661065.0897944
1022,0.0
2,1, 1, 1, 0,11, 0.00,60.00,Sunday
835,61074557.37393652
1022,0.0
2,1, 1, 1, 0,12, 0.00,60.00,Sunday
835,55145421.4437986
1022,0.0
2,1, 1, 1, 0,13, 0.00,60.00,Sunday
835,50717818.10361123
1022,0.0
2,1, 1, 1, 0,14, 0.00,60.00,Sunday
835,48066939.70362944
1022,0.0
2,1, 1, 1, 0,15, 0.00,60.00,Sunday
835,46555333.77395564
1022,0.0
2,1, 1, 1, 0,16, 0.00,60.00,Sunday
835,45320468.16456416
1022,0.0
2,1, 1, 1, 0,17, 0.00,60.00,Sunday
835,44376462.11941118
1022,0.0
2,1, 1, 1, 0,18, 0.00,60.00,Sunday
835,71024316.20165479
1022,0.0
2,1, 1, 1, 0,19, 0.00,60.00,Sunday
835,64300156.90057083
1022,0.0
2,1, 1, 1, 0,20, 0.00,60.00,Sunday
835,53694657.96646285
1022,0.0
2,1, 1, 1, 0,21, 0.00,60.00,Sunday
835,51398374.22662307
1022,0.0
2,1, 1, 1, 0,22, 0.00,60.00,Sunday
835,8538474.598870084
1022,0.0
2,1, 1, 1, 0,23, 0.00,60.00,Sunday
835,7977617.494708238
1022,0.0
2,1, 1, 1, 0,24, 0.00,60.00,Sunday
835,0.0
1022,0.0
2,2, 1, 2, 0, 1, 0.00,60.00,Monday
835,0.0
1022,0.0
2,2, 1, 2, 0, 2, 0.00,60.00,Monday
835,0.0
1022,0.0
2,2, 1, 2, 0, 3, 0.00,60.00,Monday
835,0.0
1022,0.0
2,2, 1, 2, 0, 4, 0.00,60.00,Monday
835,0.0
1022,0.0
2,2, 1, 2, 0, 5, 0.00,60.00,Monday
835,0.0
1022,0.0
2,2, 1, 2, 0, 6, 0.00,60.00,Monday
835,122753134.80630607
1022,0.0
2,2, 1, 2, 0, 7, 0.00,60.00,Monday
835,104301911.31848374
1022,0.0
2,2, 1, 2, 0, 8, 0.00,60.00,Monday
835,78471503.01996553
1022,0.0
2,2, 1, 2, 0, 9, 0.00,60.00,Monday
835,74851008.17838015
1022,0.0
2,2, 1, 2, 0,10, 0.00,60.00,Monday
835,67739603.5940671
1022,0.0
2,2, 1, 2, 0,11, 0.00,60.00,Monday
835,0.0
1022,0.0
2,2, 1, 2, 0,12, 0.00,60.00,Monday
835,0.0
1022,0.0
2,2, 1, 2, 0,13, 0.00,60.00,Monday
835,0.0
1022,0.0
2,2, 1, 2, 0,14, 0.00,60.00,Monday
835,0.0
1022,0.0
2,2, 1, 2, 0,15, 0.00,60.00,Monday
835,0.0
1022,0.0
2,2, 1, 2, 0,16, 0.00,60.00,Monday
835,78116478.4227632
1022,0.0
2,2, 1, 2, 0,17, 0.00,60.00,Monday
835,61393014.24377335
1022,0.0
2,2, 1, 2, 0,18, 0.00,60.00,Monday
835,77603672.26665774
1022,0.0
2,2, 1, 2, 0,19, 0.00,60.00,Monday
835,70306484.36770141
1022,0.0
2,2, 1, 2, 0,20, 0.00,60.00,Monday
835,61526975.434231657
1022,0.0
2,2, 1, 2, 0,21, 0.00,60.00,Monday
835,61262727.02663462
1022,0.0
2,2, 1, 2, 0,22, 0.00,60.00,Monday
835,61053277.15522416
1022,0.0
2,2, 1, 2, 0,23, 0.00,60.00,Monday
835,58783175.33174965
1022,0.0
2,2, 1, 2, 0,24, 0.00,60.00,Monday
835,49002882.72541335
1022,0.0
2,3, 1, 3, 0, 1, 0.00,60.00,Tuesday
835,0.0
1022,0.0
2,3, 1, 3, 0, 2, 0.00,60.00,Tuesday
835,0.0
1022,0.0
2,3, 1, 3, 0, 3, 0.00,60.00,Tuesday
835,0.0
1022,0.0
2,3, 1, 3, 0, 4, 0.00,60.00,Tuesday
835,0.0
1022,0.0
2,3, 1, 3, 0, 5, 0.00,60.00,Tuesday
835,0.0
1022,0.0
2,3, 1, 3, 0, 6, 0.00,60.00,Tuesday
835,126510453.78851417
1022,0.0
2,3, 1, 3, 0, 7, 0.00,60.00,Tuesday
835,114737394.67682126
1022,0.0
2,3, 1, 3, 0, 8, 0.00,60.00,Tuesday
835,85129647.24493751
1022,0.0
2,3, 1, 3, 0, 9, 0.00,60.00,Tuesday
835,82517876.2415811
1022,0.0
2,3, 1, 3, 0,10, 0.00,60.00,Tuesday
835,75005758.48636922
1022,0.0
2,3, 1, 3, 0,11, 0.00,60.00,Tuesday
835,0.0
1022,0.0
2,3, 1, 3, 0,12, 0.00,60.00,Tuesday
835,0.0
1022,0.0
2,3, 1, 3, 0,13, 0.00,60.00,Tuesday
835,0.0
1022,0.0
2,3, 1, 3, 0,14, 0.00,60.00,Tuesday
835,0.0
1022,0.0
2,3, 1, 3, 0,15, 0.00,60.00,Tuesday
835,0.0
1022,0.0
2,3, 1, 3, 0,16, 0.00,60.00,Tuesday
835,85239560.88243425
1022,0.0
2,3, 1, 3, 0,17, 0.00,60.00,Tuesday
835,70416563.54213619
1022,0.0
2,3, 1, 3, 0,18, 0.00,60.00,Tuesday
835,86731507.96688466
1022,0.0
2,3, 1, 3, 0,19, 0.00,60.00,Tuesday
835,76901296.51769966
1022,0.0
2,3, 1, 3, 0,20, 0.00,60.00,Tuesday
835,65106441.81543824
1022,0.0
2,3, 1, 3, 0,21, 0.00,60.00,Tuesday
835,62532391.93645401
1022,0.0
2,3, 1, 3, 0,22, 0.00,60.00,Tuesday
835,60139583.72559267
1022,0.0
2,3, 1, 3, 0,23, 0.00,60.00,Tuesday
835,57130785.84664205
1022,0.0
2,3, 1, 3, 0,24, 0.00,60.00,Tuesday
835,47459052.172837678
1022,0.0
2,4, 1, 4, 0, 1, 0.00,60.00,Wednesday
835,0.0
1022,0.0
2,4, 1, 4, 0, 2, 0.00,60.00,Wednesday
835,0.0
1022,0.0
2,4, 1, 4, 0, 3, 0.00,60.00,Wednesday
835,0.0
1022,0.0
2,4, 1, 4, 0, 4, 0.00,60.00,Wednesday
835,0.0
1022,0.0
2,4, 1, 4, 0, 5, 0.00,60.00,Wednesday
835,0.0
1022,0.0
2,4, 1, 4, 0, 6, 0.00,60.00,Wednesday
835,123787804.17227154
1022,0.0
2,4, 1, 4, 0, 7, 0.00,60.00,Wednesday
835,107047645.00398487
1022,0.0
2,4, 1, 4, 0, 8, 0.00,60.00,Wednesday
835,81586564.14092203
1022,0.0
2,4, 1, 4, 0, 9, 0.00,60.00,Wednesday
835,80392484.03004007
1022,0.0
2,4, 1, 4, 0,10, 0.00,60.00,Wednesday
835,73855378.78549963
1022,0.0
2,4, 1, 4, 0,11, 0.00,60.00,Wednesday
835,0.0
1022,0.0
2,4, 1, 4, 0,12, 0.00,60.00,Wednesday
835,0.0
1022,0.0
2,4, 1, 4, 0,13, 0.00,60.00,Wednesday
835,0.0
1022,0.0
2,4, 1, 4, 0,14, 0.00,60.00,Wednesday
835,0.0
1022,0.0
2,4, 1, 4, 0,15, 0.00,60.00,Wednesday
835,0.0
1022,0.0
2,4, 1, 4, 0,16, 0.00,60.00,Wednesday
835,88487277.05442769
1022,0.0
2,4, 1, 4, 0,17, 0.00,60.00,Wednesday
835,73227223.98638931
1022,0.0
2,4, 1, 4, 0,18, 0.00,60.00,Wednesday
835,92493342.69165622
1022,0.0
2,4, 1, 4, 0,19, 0.00,60.00,Wednesday
835,85929688.63893008
1022,0.0
2,4, 1, 4, 0,20, 0.00,60.00,Wednesday
835,72702516.43291761
1022,0.0
2,4, 1, 4, 0,21, 0.00,60.00,Wednesday
835,66916477.64361452
1022,0.0
2,4, 1, 4, 0,22, 0.00,60.00,Wednesday
835,60946306.11841515
1022,0.0
2,4, 1, 4, 0,23, 0.00,60.00,Wednesday
835,61290803.92449884
1022,0.0
2,4, 1, 4, 0,24, 0.00,60.00,Wednesday
835,54008487.4564093
1022,0.0
2,5, 1, 5, 0, 1, 0.00,60.00,Thursday
835,0.0
1022,0.0
2,5, 1, 5, 0, 2, 0.00,60.00,Thursday
835,0.0
1022,0.0
2,5, 1, 5, 0, 3, 0.00,60.00,Thursday
835,0.0
1022,0.0
2,5, 1, 5, 0, 4, 0.00,60.00,Thursday
835,3714432.420672432
1022,0.0
2,5, 1, 5, 0, 5, 0.00,60.00,Thursday
835,12169454.01405211
1022,0.0
2,5, 1, 5, 0, 6, 0.00,60.00,Thursday
835,127134116.44609912
1022,0.0
2,5, 1, 5, 0, 7, 0.00,60.00,Thursday
835,127134116.44609848
1022,0.0
2,5, 1, 5, 0, 8, 0.00,60.00,Thursday
835,115274199.24761293
1022,0.0
2,5, 1, 5, 0, 9, 0.00,60.00,Thursday
835,104973145.23010832
1022,0.0
2,5, 1, 5, 0,10, 0.00,60.00,Thursday
835,85792899.0521698
1022,0.0
2,5, 1, 5, 0,11, 0.00,60.00,Thursday
835,0.0
1022,0.0
2,5, 1, 5, 0,12, 0.00,60.00,Thursday
835,0.0
1022,0.0
2,5, 1, 5, 0,13, 0.00,60.00,Thursday
835,0.0
1022,0.0
2,5, 1, 5, 0,14, 0.00,60.00,Thursday
835,0.0
1022,0.0
2,5, 1, 5, 0,15, 0.00,60.00,Thursday
835,0.0
1022,0.0
2,5, 1, 5, 0,16, 0.00,60.00,Thursday
835,87394496.46268928
1022,0.0
2,5, 1, 5, 0,17, 0.00,60.00,Thursday
835,72754110.81167954
1022,0.0
2,5, 1, 5, 0,18, 0.00,60.00,Thursday
835,92781974.05070485
1022,0.0
2,5, 1, 5, 0,19, 0.00,60.00,Thursday
835,86976922.03033963
1022,0.0
2,5, 1, 5, 0,20, 0.00,60.00,Thursday
835,75421402.72160317
1022,0.0
2,5, 1, 5, 0,21, 0.00,60.00,Thursday
835,72330830.18366164
1022,0.0
2,5, 1, 5, 0,22, 0.00,60.00,Thursday
835,69132560.27932038
1022,0.0
2,5, 1, 5, 0,23, 0.00,60.00,Thursday
835,65732309.064411
1022,0.0
2,5, 1, 5, 0,24, 0.00,60.00,Thursday
835,53085081.016272578
1022,0.0
2,6, 1, 6, 0, 1, 0.00,60.00,Friday
835,0.0
1022,0.0
2,6, 1, 6, 0, 2, 0.00,60.00,Friday
835,0.0
1022,0.0
2,6, 1, 6, 0, 3, 0.00,60.00,Friday
835,0.0
1022,0.0
2,6, 1, 6, 0, 4, 0.00,60.00,Friday
835,0.0
1022,0.0
2,6, 1, 6, 0, 5, 0.00,60.00,Friday
835,0.0
1022,0.0
2,6, 1, 6, 0, 6, 0.00,60.00,Friday
835,127134116.4460985
1022,0.0
2,6, 1, 6, 0, 7, 0.00,60.00,Friday
835,120847500.70726073
1022,0.0
2,6, 1, 6, 0, 8, 0.00,60.00,Friday
835,90999388.16849405
1022,0.0
2,6, 1, 6, 0, 9, 0.00,60.00,Friday
835,87468455.28402455
1022,0.0
2,6, 1, 6, 0,10, 0.00,60.00,Friday
835,79981952.45722334
1022,0.0
2,6, 1, 6, 0,11, 0.00,60.00,Friday
835,0.0
1022,0.0
2,6, 1, 6, 0,12, 0.00,60.00,Friday
835,0.0
1022,0.0
2,6, 1, 6, 0,13, 0.00,60.00,Friday
835,0.0
1022,0.0
2,6, 1, 6, 0,14, 0.00,60.00,Friday
835,0.0
1022,0.0
2,6, 1, 6, 0,15, 0.00,60.00,Friday
835,0.0
1022,0.0
2,6, 1, 6, 0,16, 0.00,60.00,Friday
835,87114041.98778485
1022,0.0
2,6, 1, 6, 0,17, 0.00,60.00,Friday
835,73660990.43344373
1022,0.0
2,6, 1, 6, 0,18, 0.00,60.00,Friday
835,95717157.68291514
1022,0.0
2,6, 1, 6, 0,19, 0.00,60.00,Friday
835,92483036.78105404
1022,0.0
2,6, 1, 6, 0,20, 0.00,60.00,Friday
835,82223012.0230485
1022,0.0
2,6, 1, 6, 0,21, 0.00,60.00,Friday
835,80367611.7139296
1022,0.0
2,6, 1, 6, 0,22, 0.00,60.00,Friday
835,78137772.02937281
1022,0.0
2,6, 1, 6, 0,23, 0.00,60.00,Friday
835,76294852.32332495
1022,0.0
2,6, 1, 6, 0,24, 0.00,60.00,Friday
835,61783583.32574396
1022,0.0
2,7, 1, 7, 0, 1, 0.00,60.00,Saturday
835,0.0
1022,0.0
2,7, 1, 7, 0, 2, 0.00,60.00,Saturday
835,0.0
1022,0.0
2,7, 1, 7, 0, 3, 0.00,60.00,Saturday
835,743993.8748913392
1022,0.0
2,7, 1, 7, 0, 4, 0.00,60.00,Saturday
835,6274704.337249993
1022,0.0
2,7, 1, 7, 0, 5, 0.00,60.00,Saturday
835,13698898.69257782
1022,0.0
2,7, 1, 7, 0, 6, 0.00,60.00,Saturday
835,48613196.819085549
1022,0.0
2,7, 1, 7, 0, 7, 0.00,60.00,Saturday
835,51455520.85315812
1022,0.0
2,7, 1, 7, 0, 8, 0.00,60.00,Saturday
835,119634584.80886895
1022,0.0
2,7, 1, 7, 0, 9, 0.00,60.00,Saturday
835,114430952.00237999
1022,0.0
2,7, 1, 7, 0,10, 0.00,60.00,Saturday
835,110215758.80358809
1022,0.0
2,7, 1, 7, 0,11, 0.00,60.00,Saturday
835,78313615.38802567
1022,0.0
2,7, 1, 7, 0,12, 0.00,60.00,Saturday
835,63531202.82078406
1022,0.0
2,7, 1, 7, 0,13, 0.00,60.00,Saturday
835,50602082.93513164
1022,0.0
2,7, 1, 7, 0,14, 0.00,60.00,Saturday
835,42612314.18401018
1022,0.0
2,7, 1, 7, 0,15, 0.00,60.00,Saturday
835,43647488.174736868
1022,0.0
2,7, 1, 7, 0,16, 0.00,60.00,Saturday
835,44500669.746915299
1022,0.0
2,7, 1, 7, 0,17, 0.00,60.00,Saturday
835,44513995.43969217
1022,0.0
2,7, 1, 7, 0,18, 0.00,60.00,Saturday
835,77202617.95348594
1022,0.0
2,7, 1, 7, 0,19, 0.00,60.00,Saturday
835,76030111.03740788
1022,0.0
2,7, 1, 7, 0,20, 0.00,60.00,Saturday
835,67520912.59728894
1022,0.0
2,7, 1, 7, 0,21, 0.00,60.00,Saturday
835,65651088.94743422
1022,0.0
2,7, 1, 7, 0,22, 0.00,60.00,Saturday
835,12844444.146055105
1022,0.0
2,7, 1, 7, 0,23, 0.00,60.00,Saturday
835,12146210.754879406
1022,0.0
2,7, 1, 7, 0,24, 0.00,60.00,Saturday
835,0.0
1022,0.0
2,8, 1, 8, 0, 1, 0.00,60.00,Sunday
835,0.0
1022,0.0
2,8, 1, 8, 0, 2, 0.00,60.00,Sunday
835,0.0
1022,0.0
2,8, 1, 8, 0, 3, 0.00,60.00,Sunday
835,1061057.5365331653
1022,0.0
2,8, 1, 8, 0, 4, 0.00,60.00,Sunday
835,6509633.902941067
1022,0.0
2,8, 1, 8, 0, 5, 0.00,60.00,Sunday
835,11812992.950066999
1022,0.0
2,8, 1, 8, 0, 6, 0.00,60.00,Sunday
835,48089822.17997612
1022,0.0
2,8, 1, 8, 0, 7, 0.00,60.00,Sunday
835,50909360.835574
1022,0.0
2,8, 1, 8, 0, 8, 0.00,60.00,Sunday
835,117670146.66870515
1022,0.0
2,8, 1, 8, 0, 9, 0.00,60.00,Sunday
835,112879292.9747113
1022,0.0
2,8, 1, 8, 0,10, 0.00,60.00,Sunday
835,108529445.99574064
1022,0.0
2,8, 1, 8, 0,11, 0.00,60.00,Sunday
835,78546683.64668997
1022,0.0
2,8, 1, 8, 0,12, 0.00,60.00,Sunday
835,68526026.39640609
1022,0.0
2,8, 1, 8, 0,13, 0.00,60.00,Sunday
835,60529277.80038633
1022,0.0
2,8, 1, 8, 0,14, 0.00,60.00,Sunday
835,57130570.398764837
1022,0.0
2,8, 1, 8, 0,15, 0.00,60.00,Sunday
835,55387252.16093563
1022,0.0
2,8, 1, 8, 0,16, 0.00,60.00,Sunday
835,54343653.96599185
1022,0.0
2,8, 1, 8, 0,17, 0.00,60.00,Sunday
835,53903427.01794016
1022,0.0
2,8, 1, 8, 0,18, 0.00,60.00,Sunday
835,86746070.73802333
1022,0.0
2,8, 1, 8, 0,19, 0.00,60.00,Sunday
835,82372448.41754793
1022,0.0
2,8, 1, 8, 0,20, 0.00,60.00,Sunday
835,71130586.24523431
1022,0.0
2,8, 1, 8, 0,21, 0.00,60.00,Sunday
835,68029894.71151948
1022,0.0
2,8, 1, 8, 0,22, 0.00,60.00,Sunday
835,13238736.728100619
1022,0.0
2,8, 1, 8, 0,23, 0.00,60.00,Sunday
835,12324875.302263575
1022,0.0
2,8, 1, 8, 0,24, 0.00,60.00,Sunday
835,0.0
1022,0.0
2,9, 1, 9, 0, 1, 0.00,60.00,Monday
835,0.0
1022,0.0
2,9, 1, 9, 0, 2, 0.00,60.00,Monday
835,0.0
1022,0.0
2,9, 1, 9, 0, 3, 0.00,60.00,Monday
835,0.0
1022,0.0
2,9, 1, 9, 0, 4, 0.00,60.00,Monday
835,1373567.2235229405
1022,0.0
2,9, 1, 9, 0, 5, 0.00,60.00,Monday
835,3879580.0149286978
1022,0.0
2,9, 1, 9, 0, 6, 0.00,60.00,Monday
835,127134116.44609839
1022,0.0
2,9, 1, 9, 0, 7, 0.00,60.00,Monday
835,123199428.394197
1022,0.0
2,9, 1, 9, 0, 8, 0.00,60.00,Monday
835,91311827.74204989
1022,0.0
2,9, 1, 9, 0, 9, 0.00,60.00,Monday
835,85245091.54815254
1022,0.0
2,9, 1, 9, 0,10, 0.00,60.00,Monday
835,76231339.19217664
1022,0.0
2,9, 1, 9, 0,11, 0.00,60.00,Monday
835,0.0
1022,0.0
2,9, 1, 9, 0,12, 0.00,60.00,Monday
835,0.0
1022,0.0
2,9, 1, 9, 0,13, 0.00,60.00,Monday
835,0.0
1022,0.0
2,9, 1, 9, 0,14, 0.00,60.00,Monday
835,0.0
1022,0.0
2,9, 1, 9, 0,15, 0.00,60.00,Monday
835,0.0
1022,0.0
2,9, 1, 9, 0,16, 0.00,60.00,Monday
835,76786983.77711064
1022,0.0
2,9, 1, 9, 0,17, 0.00,60.00,Monday
835,61634419.43261537
1022,0.0
2,9, 1, 9, 0,18, 0.00,60.00,Monday
835,81534254.69998792
1022,0.0
2,9, 1, 9, 0,19, 0.00,60.00,Monday
835,78166890.09325436
1022,0.0
2,9, 1, 9, 0,20, 0.00,60.00,Monday
835,71786302.556646
1022,0.0
2,9, 1, 9, 0,21, 0.00,60.00,Monday
835,73114488.68899542
1022,0.0
2,9, 1, 9, 0,22, 0.00,60.00,Monday
835,74478690.26389839
1022,0.0
2,9, 1, 9, 0,23, 0.00,60.00,Monday
835,72593588.51491587
1022,0.0
2,9, 1, 9, 0,24, 0.00,60.00,Monday
835,58392904.22242127
1022,0.0
2,10, 1,10, 0, 1, 0.00,60.00,Tuesday
835,0.0
1022,0.0
2,10, 1,10, 0, 2, 0.00,60.00,Tuesday
835,0.0
1022,0.0
2,10, 1,10, 0, 3, 0.00,60.00,Tuesday
835,0.0
1022,0.0
2,10, 1,10, 0, 4, 0.00,60.00,Tuesday
835,2905213.383671703
1022,0.0
2,10, 1,10, 0, 5, 0.00,60.00,Tuesday
835,9946496.455394425
1022,0.0
2,10, 1,10, 0, 6, 0.00,60.00,Tuesday
835,127134116.44609834
1022,0.0
2,10, 1,10, 0, 7, 0.00,60.00,Tuesday
835,127134116.44609677
1022,0.0
2,10, 1,10, 0, 8, 0.00,60.00,Tuesday
835,105874241.09671381
1022,0.0
2,10, 1,10, 0, 9, 0.00,60.00,Tuesday
835,93059687.86051013
1022,0.0
2,10, 1,10, 0,10, 0.00,60.00,Tuesday
835,80089925.32977507
1022,0.0
2,10, 1,10, 0,11, 0.00,60.00,Tuesday
835,0.0
1022,0.0
2,10, 1,10, 0,12, 0.00,60.00,Tuesday
835,0.0
1022,0.0
2,10, 1,10, 0,13, 0.00,60.00,Tuesday
835,0.0
1022,0.0
2,10, 1,10, 0,14, 0.00,60.00,Tuesday
835,0.0
1022,0.0
2,10, 1,10, 0,15, 0.00,60.00,Tuesday
835,0.0
1022,0.0
2,10, 1,10, 0,16, 0.00,60.00,Tuesday
835,78585825.83228594
1022,0.0
2,10, 1,10, 0,17, 0.00,60.00,Tuesday
835,66415970.321968708
1022,0.0
2,10, 1,10, 0,18, 0.00,60.00,Tuesday
835,91439290.34528545
1022,0.0
2,10, 1,10, 0,19, 0.00,60.00,Tuesday
835,90353484.79544124
1022,0.0
2,10, 1,10, 0,20, 0.00,60.00,Tuesday
835,84541138.16876936
1022,0.0
2,10, 1,10, 0,21, 0.00,60.00,Tuesday
835,86406207.82395591
1022,0.0
2,10, 1,10, 0,22, 0.00,60.00,Tuesday
835,87671739.26116093
1022,0.0
2,10, 1,10, 0,23, 0.00,60.00,Tuesday
835,80633836.03319088
1022,0.0
2,10, 1,10, 0,24, 0.00,60.00,Tuesday
835,59629151.40924545
1022,0.0
2,11, 1,11, 0, 1, 0.00,60.00,Wednesday
835,0.0
1022,0.0
2,11, 1,11, 0, 2, 0.00,60.00,Wednesday
835,0.0
1022,0.0
2,11, 1,11, 0, 3, 0.00,60.00,Wednesday
835,0.0
1022,0.0
2,11, 1,11, 0, 4, 0.00,60.00,Wednesday
835,0.0
1022,0.0
2,11, 1,11, 0, 5, 0.00,60.00,Wednesday
835,913646.754119408
1022,0.0
2,11, 1,11, 0, 6, 0.00,60.00,Wednesday
835,127134116.44609873
1022,0.0
2,11, 1,11, 0, 7, 0.00,60.00,Wednesday
835,125335632.50729665
1022,0.0
2,11, 1,11, 0, 8, 0.00,60.00,Wednesday
835,99613362.9495175
1022,0.0
2,11, 1,11, 0, 9, 0.00,60.00,Wednesday
835,95474595.49808821
1022,0.0
2,11, 1,11, 0,10, 0.00,60.00,Wednesday
835,86861465.36110881
1022,0.0
2,11, 1,11, 0,11, 0.00,60.00,Wednesday
835,0.0
1022,0.0
2,11, 1,11, 0,12, 0.00,60.00,Wednesday
835,0.0
1022,0.0
2,11, 1,11, 0,13, 0.00,60.00,Wednesday
835,0.0
1022,0.0
2,11, 1,11, 0,14, 0.00,60.00,Wednesday
835,0.0
1022,0.0
2,11, 1,11, 0,15, 0.00,60.00,Wednesday
835,0.0
1022,0.0
2,11, 1,11, 0,16, 0.00,60.00,Wednesday
835,81487091.45634362
1022,0.0
2,11, 1,11, 0,17, 0.00,60.00,Wednesday
835,65098229.776764709
1022,0.0
2,11, 1,11, 0,18, 0.00,60.00,Wednesday
835,87661399.21615264
1022,0.0
2,11, 1,11, 0,19, 0.00,60.00,Wednesday
835,84422261.54112339
1022,0.0
2,11, 1,11, 0,20, 0.00,60.00,Wednesday
835,76085831.62257234
1022,0.0
2,11, 1,11, 0,21, 0.00,60.00,Wednesday
835,75422087.12764313
1022,0.0
2,11, 1,11, 0,22, 0.00,60.00,Wednesday
835,74658835.99406591
1022,0.0
2,11, 1,11, 0,23, 0.00,60.00,Wednesday
835,70842410.14898432
1022,0.0
2,11, 1,11, 0,24, 0.00,60.00,Wednesday
835,55884670.57584508
1022,0.0
2,12, 1,12, 0, 1, 0.00,60.00,Thursday
835,0.0
1022,0.0
2,12, 1,12, 0, 2, 0.00,60.00,Thursday
835,0.0
1022,0.0
2,12, 1,12, 0, 3, 0.00,60.00,Thursday
835,0.0
1022,0.0
2,12, 1,12, 0, 4, 0.00,60.00,Thursday
835,0.0
1022,0.0
2,12, 1,12, 0, 5, 0.00,60.00,Thursday
835,0.0
1022,0.0
2,12, 1,12, 0, 6, 0.00,60.00,Thursday
835,115522074.94645173
1022,0.0
2,12, 1,12, 0, 7, 0.00,60.00,Thursday
835,95145334.93174979
1022,0.0
2,12, 1,12, 0, 8, 0.00,60.00,Thursday
835,69355612.36943966
1022,0.0
2,12, 1,12, 0, 9, 0.00,60.00,Thursday
835,65175433.42139191
1022,0.0
2,12, 1,12, 0,10, 0.00,60.00,Thursday
835,58501275.493409138
1022,0.0
2,12, 1,12, 0,11, 0.00,60.00,Thursday
835,0.0
1022,0.0
2,12, 1,12, 0,12, 0.00,60.00,Thursday
835,0.0
1022,0.0
2,12, 1,12, 0,13, 0.00,60.00,Thursday
835,0.0
1022,0.0
2,12, 1,12, 0,14, 0.00,60.00,Thursday
835,0.0
1022,0.0
2,12, 1,12, 0,15, 0.00,60.00,Thursday
835,0.0
1022,0.0
2,12, 1,12, 0,16, 0.00,60.00,Thursday
835,44602831.65592044
1022,0.0
2,12, 1,12, 0,17, 0.00,60.00,Thursday
835,37719127.692375469
1022,0.0
2,12, 1,12, 0,18, 0.00,60.00,Thursday
835,44907338.16181925
1022,0.0
2,12, 1,12, 0,19, 0.00,60.00,Thursday
835,42465358.64858049
1022,0.0
2,12, 1,12, 0,20, 0.00,60.00,Thursday
835,36090090.485978368
1022,0.0
2,12, 1,12, 0,21, 0.00,60.00,Thursday
835,38496441.34064891
1022,0.0
2,12, 1,12, 0,22, 0.00,60.00,Thursday
835,41274173.16684744
1022,0.0
2,12, 1,12, 0,23, 0.00,60.00,Thursday
835,44712216.23302977
1022,0.0
2,12, 1,12, 0,24, 0.00,60.00,Thursday
835,42831415.91100462
1022,0.0
2,13, 1,13, 0, 1, 0.00,60.00,Friday
835,0.0
1022,0.0
2,13, 1,13, 0, 2, 0.00,60.00,Friday
835,0.0
1022,0.0
2,13, 1,13, 0, 3, 0.00,60.00,Friday
835,0.0
1022,0.0
2,13, 1,13, 0, 4, 0.00,60.00,Friday
835,0.0
1022,0.0
2,13, 1,13, 0, 5, 0.00,60.00,Friday
835,0.0
1022,0.0
2,13, 1,13, 0, 6, 0.00,60.00,Friday
835,126282549.72648263
1022,0.0
2,13, 1,13, 0, 7, 0.00,60.00,Friday
835,114836522.63278528
1022,0.0
2,13, 1,13, 0, 8, 0.00,60.00,Friday
835,86936905.49769597
1022,0.0
2,13, 1,13, 0, 9, 0.00,60.00,Friday
835,82965376.9102391
1022,0.0
2,13, 1,13, 0,10, 0.00,60.00,Friday
835,73620956.92333699
1022,0.0
2,13, 1,13, 0,11, 0.00,60.00,Friday
835,0.0
1022,0.0
2,13, 1,13, 0,12, 0.00,60.00,Friday
835,0.0
1022,0.0
2,13, 1,13, 0,13, 0.00,60.00,Friday
835,0.0
1022,0.0
2,13, 1,13, 0,14, 0.00,60.00,Friday
835,0.0
1022,0.0
2,13, 1,13, 0,15, 0.00,60.00,Friday
835,0.0
1022,0.0
2,13, 1,13, 0,16, 0.00,60.00,Friday
835,58196604.8861342
1022,0.0
2,13, 1,13, 0,17, 0.00,60.00,Friday
835,45683267.718100938
1022,0.0
2,13, 1,13, 0,18, 0.00,60.00,Friday
835,60565287.95647989
1022,0.0
2,13, 1,13, 0,19, 0.00,60.00,Friday
835,58860591.24087412
1022,0.0
2,13, 1,13, 0,20, 0.00,60.00,Friday
835,54404570.946958567
1022,0.0
2,13, 1,13, 0,21, 0.00,60.00,Friday
835,58337003.97476325
1022,0.0
2,13, 1,13, 0,22, 0.00,60.00,Friday
835,59668368.724831018
1022,0.0
2,13, 1,13, 0,23, 0.00,60.00,Friday
835,58124214.0833765
1022,0.0
2,13, 1,13, 0,24, 0.00,60.00,Friday
835,48328447.56960963
1022,0.0
2,14, 1,14, 0, 1, 0.00,60.00,Saturday
835,0.0
1022,0.0
2,14, 1,14, 0, 2, 0.00,60.00,Saturday
835,0.0
1022,0.0
2,14, 1,14, 0, 3, 0.00,60.00,Saturday
835,0.0
1022,0.0
2,14, 1,14, 0, 4, 0.00,60.00,Saturday
835,0.0
1022,0.0
2,14, 1,14, 0, 5, 0.00,60.00,Saturday
835,0.0
1022,0.0
2,14, 1,14, 0, 6, 0.00,60.00,Saturday
835,32801907.49510294
1022,0.0
2,14, 1,14, 0, 7, 0.00,60.00,Saturday
835,29126553.83866765
1022,0.0
2,14, 1,14, 0, 8, 0.00,60.00,Saturday
835,110671225.61507207
1022,0.0
2,14, 1,14, 0, 9, 0.00,60.00,Saturday
835,99443776.39771246
1022,0.0
2,14, 1,14, 0,10, 0.00,60.00,Saturday
835,86056746.06725694
1022,0.0
2,14, 1,14, 0,11, 0.00,60.00,Saturday
835,56193190.74234915
1022,0.0
2,14, 1,14, 0,12, 0.00,60.00,Saturday
835,44549880.47162859
1022,0.0
2,14, 1,14, 0,13, 0.00,60.00,Saturday
835,34113288.05916708
1022,0.0
2,14, 1,14, 0,14, 0.00,60.00,Saturday
835,29834265.044918017
1022,0.0
2,14, 1,14, 0,15, 0.00,60.00,Saturday
835,27733132.73031821
1022,0.0
2,14, 1,14, 0,16, 0.00,60.00,Saturday
835,26381347.21082626
1022,0.0
2,14, 1,14, 0,17, 0.00,60.00,Saturday
835,27544238.03289392
1022,0.0
2,14, 1,14, 0,18, 0.00,60.00,Saturday
835,49925115.5047708
1022,0.0
2,14, 1,14, 0,19, 0.00,60.00,Saturday
835,49287205.87741634
1022,0.0
2,14, 1,14, 0,20, 0.00,60.00,Saturday
835,43421273.84733104
1022,0.0
2,14, 1,14, 0,21, 0.00,60.00,Saturday
835,44857270.915518838
1022,0.0
2,14, 1,14, 0,22, 0.00,60.00,Saturday
835,7687198.548963025
1022,0.0
2,14, 1,14, 0,23, 0.00,60.00,Saturday
835,6366701.068757279
1022,0.0
2,14, 1,14, 0,24, 0.00,60.00,Saturday
835,0.0
1022,0.0
2,15, 1,15, 0, 1, 0.00,60.00,Sunday
835,0.0
1022,0.0
2,15, 1,15, 0, 2, 0.00,60.00,Sunday
835,0.0
1022,0.0
2,15, 1,15, 0, 3, 0.00,60.00,Sunday
835,0.0
1022,0.0
2,15, 1,15, 0, 4, 0.00,60.00,Sunday
835,0.0
1022,0.0
2,15, 1,15, 0, 5, 0.00,60.00,Sunday
835,0.0
1022,0.0
2,15, 1,15, 0, 6, 0.00,60.00,Sunday
835,14928770.880910449
1022,0.0
2,15, 1,15, 0, 7, 0.00,60.00,Sunday
835,12927767.59346047
1022,0.0
2,15, 1,15, 0, 8, 0.00,60.00,Sunday
835,70889014.85453005
1022,0.0
2,15, 1,15, 0, 9, 0.00,60.00,Sunday
835,56295912.64033818
1022,0.0
2,15, 1,15, 0,10, 0.00,60.00,Sunday
835,41808061.375227827
1022,0.0
2,15, 1,15, 0,11, 0.00,60.00,Sunday
835,19410373.696202697
1022,0.0
2,15, 1,15, 0,12, 0.00,60.00,Sunday
835,15909056.59953367
1022,0.0
2,15, 1,15, 0,13, 0.00,60.00,Sunday
835,13159966.17634632
1022,0.0
2,15, 1,15, 0,14, 0.00,60.00,Sunday
835,11297348.609681938
1022,0.0
2,15, 1,15, 0,15, 0.00,60.00,Sunday
835,9991314.427553377
1022,0.0
2,15, 1,15, 0,16, 0.00,60.00,Sunday
835,9031258.553948529
1022,0.0
2,15, 1,15, 0,17, 0.00,60.00,Sunday
835,9889153.256883342
1022,0.0
2,15, 1,15, 0,18, 0.00,60.00,Sunday
835,18195860.889232685
1022,0.0
2,15, 1,15, 0,19, 0.00,60.00,Sunday
835,20674914.335279086
1022,0.0
2,15, 1,15, 0,20, 0.00,60.00,Sunday
835,17653783.117225078
1022,0.0
2,15, 1,15, 0,21, 0.00,60.00,Sunday
835,19090213.37396031
1022,0.0
2,15, 1,15, 0,22, 0.00,60.00,Sunday
835,3394545.6777296916
1022,0.0
2,15, 1,15, 0,23, 0.00,60.00,Sunday
835,3394545.677729692
1022,0.0
2,15, 1,15, 0,24, 0.00,60.00,Sunday
835,0.0
1022,0.0
2,16, 1,16, 0, 1, 0.00,60.00,Monday
835,0.0
1022,0.0
2,16, 1,16, 0, 2, 0.00,60.00,Monday
835,0.0
1022,0.0
2,16, 1,16, 0, 3, 0.00,60.00,Monday
835,0.0
1022,0.0
2,16, 1,16, 0, 4, 0.00,60.00,Monday
835,0.0
1022,0.0
2,16, 1,16, 0, 5, 0.00,60.00,Monday
835,0.0
1022,0.0
2,16, 1,16, 0, 6, 0.00,60.00,Monday
835,101517972.46506994
1022,0.0
2,16, 1,16, 0, 7, 0.00,60.00,Monday
835,82544682.56817118
1022,0.0
2,16, 1,16, 0, 8, 0.00,60.00,Monday
835,68705806.60613753
1022,0.0
2,16, 1,16, 0, 9, 0.00,60.00,Monday
835,69274083.67626439
1022,0.0
2,16, 1,16, 0,10, 0.00,60.00,Monday
835,64770534.75814894
1022,0.0
2,16, 1,16, 0,11, 0.00,60.00,Monday
835,0.0
1022,0.0
2,16, 1,16, 0,12, 0.00,60.00,Monday
835,0.0
1022,0.0
2,16, 1,16, 0,13, 0.00,60.00,Monday
835,0.0
1022,0.0
2,16, 1,16, 0,14, 0.00,60.00,Monday
835,0.0
1022,0.0
2,16, 1,16, 0,15, 0.00,60.00,Monday
835,0.0
1022,0.0
2,16, 1,16, 0,16, 0.00,60.00,Monday
835,27534855.788852868
1022,0.0
2,16, 1,16, 0,17, 0.00,60.00,Monday
835,30111977.410985374
1022,0.0
2,16, 1,16, 0,18, 0.00,60.00,Monday
835,33808718.9870207
1022,0.0
2,16, 1,16, 0,19, 0.00,60.00,Monday
835,37999845.971171338
1022,0.0
2,16, 1,16, 0,20, 0.00,60.00,Monday
835,31072436.875902267
1022,0.0
2,16, 1,16, 0,21, 0.00,60.00,Monday
835,31138705.494706908
1022,0.0
2,16, 1,16, 0,22, 0.00,60.00,Monday
835,31041864.964840443
1022,0.0
2,16, 1,16, 0,23, 0.00,60.00,Monday
835,32722640.81956529
1022,0.0
2,16, 1,16, 0,24, 0.00,60.00,Monday
835,33766764.30080747
1022,0.0
2,17, 1,17, 0, 1, 0.00,60.00,Tuesday
835,0.0
1022,0.0
2,17, 1,17, 0, 2, 0.00,60.00,Tuesday
835,0.0
1022,0.0
2,17, 1,17, 0, 3, 0.00,60.00,Tuesday
835,0.0
1022,0.0
2,17, 1,17, 0, 4, 0.00,60.00,Tuesday
835,0.0
1022,0.0
2,17, 1,17, 0, 5, 0.00,60.00,Tuesday
835,0.0
1022,0.0
2,17, 1,17, 0, 6, 0.00,60.00,Tuesday
835,121441021.84502475
1022,0.0
2,17, 1,17, 0, 7, 0.00,60.00,Tuesday
835,103803446.5816316
1022,0.0
2,17, 1,17, 0, 8, 0.00,60.00,Tuesday
835,78121038.62881485
1022,0.0
2,17, 1,17, 0, 9, 0.00,60.00,Tuesday
835,72094403.45937945
1022,0.0
2,17, 1,17, 0,10, 0.00,60.00,Tuesday
835,61098942.70571989
1022,0.0
2,17, 1,17, 0,11, 0.00,60.00,Tuesday
835,0.0
1022,0.0
2,17, 1,17, 0,12, 0.00,60.00,Tuesday
835,0.0
1022,0.0
2,17, 1,17, 0,13, 0.00,60.00,Tuesday
835,0.0
1022,0.0
2,17, 1,17, 0,14, 0.00,60.00,Tuesday
835,0.0
1022,0.0
2,17, 1,17, 0,15, 0.00,60.00,Tuesday
835,0.0
1022,0.0
2,17, 1,17, 0,16, 0.00,60.00,Tuesday
835,50209248.146974328
1022,0.0
2,17, 1,17, 0,17, 0.00,60.00,Tuesday
835,42702267.42883216
1022,0.0
2,17, 1,17, 0,18, 0.00,60.00,Tuesday
835,55905067.29520626
1022,0.0
2,17, 1,17, 0,19, 0.00,60.00,Tuesday
835,57800360.917248237
1022,0.0
2,17, 1,17, 0,20, 0.00,60.00,Tuesday
835,54878725.94624007
1022,0.0
2,17, 1,17, 0,21, 0.00,60.00,Tuesday
835,59826709.507717739
1022,0.0
2,17, 1,17, 0,22, 0.00,60.00,Tuesday
835,63981818.90256124
1022,0.0
2,17, 1,17, 0,23, 0.00,60.00,Tuesday
835,62466076.606937009
1022,0.0
2,17, 1,17, 0,24, 0.00,60.00,Tuesday
835,51373200.78228161
1022,0.0
2,18, 1,18, 0, 1, 0.00,60.00,Wednesday
835,0.0
1022,0.0
2,18, 1,18, 0, 2, 0.00,60.00,Wednesday
835,0.0
1022,0.0
2,18, 1,18, 0, 3, 0.00,60.00,Wednesday
835,0.0
1022,0.0
2,18, 1,18, 0, 4, 0.00,60.00,Wednesday
835,0.0
1022,0.0
2,18, 1,18, 0, 5, 0.00,60.00,Wednesday
835,0.0
1022,0.0
2,18, 1,18, 0, 6, 0.00,60.00,Wednesday
835,126253161.15589783
1022,0.0
2,18, 1,18, 0, 7, 0.00,60.00,Wednesday
835,116736773.16757259
1022,0.0
2,18, 1,18, 0, 8, 0.00,60.00,Wednesday
835,87297564.34049398
1022,0.0
2,18, 1,18, 0, 9, 0.00,60.00,Wednesday
835,84962580.27787452
1022,0.0
2,18, 1,18, 0,10, 0.00,60.00,Wednesday
835,76489285.20061511
1022,0.0
2,18, 1,18, 0,11, 0.00,60.00,Wednesday
835,0.0
1022,0.0
2,18, 1,18, 0,12, 0.00,60.00,Wednesday
835,0.0
1022,0.0
2,18, 1,18, 0,13, 0.00,60.00,Wednesday
835,0.0
1022,0.0
2,18, 1,18, 0,14, 0.00,60.00,Wednesday
835,0.0
1022,0.0
2,18, 1,18, 0,15, 0.00,60.00,Wednesday
835,0.0
1022,0.0
2,18, 1,18, 0,16, 0.00,60.00,Wednesday
835,78376909.64332319
1022,0.0
2,18, 1,18, 0,17, 0.00,60.00,Wednesday
835,62795052.3895835
1022,0.0
2,18, 1,18, 0,18, 0.00,60.00,Wednesday
835,82532220.3457857
1022,0.0
2,18, 1,18, 0,19, 0.00,60.00,Wednesday
835,77581266.82722202
1022,0.0
2,18, 1,18, 0,20, 0.00,60.00,Wednesday
835,70081032.96514109
1022,0.0
2,18, 1,18, 0,21, 0.00,60.00,Wednesday
835,70383086.28978655
1022,0.0
2,18, 1,18, 0,22, 0.00,60.00,Wednesday
835,70376941.3011006
1022,0.0
2,18, 1,18, 0,23, 0.00,60.00,Wednesday
835,68560233.20098707
1022,0.0
2,18, 1,18, 0,24, 0.00,60.00,Wednesday
835,56206382.80372186
1022,0.0
2,19, 1,19, 0, 1, 0.00,60.00,Thursday
835,0.0
1022,0.0
2,19, 1,19, 0, 2, 0.00,60.00,Thursday
835,0.0
1022,0.0
2,19, 1,19, 0, 3, 0.00,60.00,Thursday
835,0.0
1022,0.0
2,19, 1,19, 0, 4, 0.00,60.00,Thursday
835,0.0
1022,0.0
2,19, 1,19, 0, 5, 0.00,60.00,Thursday
835,759422.8197680755
1022,0.0
2,19, 1,19, 0, 6, 0.00,60.00,Thursday
835,127134116.44609899
1022,0.0
2,19, 1,19, 0, 7, 0.00,60.00,Thursday
835,123875353.22836699
1022,0.0
2,19, 1,19, 0, 8, 0.00,60.00,Thursday
835,94918132.14183334
1022,0.0
2,19, 1,19, 0, 9, 0.00,60.00,Thursday
835,88984094.95488605
1022,0.0
2,19, 1,19, 0,10, 0.00,60.00,Thursday
835,79226776.21848595
1022,0.0
2,19, 1,19, 0,11, 0.00,60.00,Thursday
835,0.0
1022,0.0
2,19, 1,19, 0,12, 0.00,60.00,Thursday
835,0.0
1022,0.0
2,19, 1,19, 0,13, 0.00,60.00,Thursday
835,0.0
1022,0.0