Program Version,EnergyPlus, Version 9.0.1-bb7ca4f0da, YMD=2021.01.02 19:15
1,5,Environment Title[],Latitude[deg],Longitude[deg],Time Zone[],Elevation[m]
2,8,Day of Simulation[],Month[],Day of Month[],DST Indicator[1=yes 0=no],Hour[],StartMinute[],EndMinute[],DayType
3,5,Cumulative Day of Simulation[],Month[],Day of Month[],DST Indicator[1=yes 0=no],DayType  ! When Daily Meters Requested
4,2,Cumulative Days of Simulation[],Month[]  ! When Monthly Meters Requested
5,1,Cumulative Days of Simulation[] ! When Run Period Meters Requested
6,1,Calendar Year of Simulation[] ! When Annual Meters Requested
27,1,Electricity:Facility [J] !Hourly
182,1,InteriorEquipment:Electricity [J] !Hourly
63,1,InteriorLights:Electricity [J] !Hourly
923,1,DistrictCooling:Facility [J] !Hourly
737,1,DistrictHeating:Facility [J] !Hourly
994,1,Carbon Equivalent:Facility [kg] !Hourly
31,11,Electricity:Facility [J] !RunPeriod [Value,Min,Month,Day,Hour,Minute,Max,Month,Day,Hour,Minute]
927,11,DistrictCooling:Facility [J] !RunPeriod [Value,Min,Month,Day,Hour,Minute,Max,Month,Day,Hour,Minute]
741,11,DistrictHeating:Facility [J] !RunPeriod [Value,Min,Month,Day,Hour,Minute,Max,Month,Day,Hour,Minute]
998,11,Carbon Equivalent:Facility [kg] !RunPeriod [Value,Min,Month,Day,Hour,Minute,Max,Month,Day,Hour,Minute]
End of Data Dictionary
1,LAB_PART1 (O1-O1:31-12),  45.22,   7.65,   1.00, 287.00
2,1, 1, 1, 0, 1, 0.00,60.00,Sunday
27,2198660.8557268807
63,0.0
182,2198660.8557268807
737,0.0
923,0.0
994,0.0
2,1, 1, 1, 0, 2, 0.00,60.00,Sunday
27,2198660.8557268807
63,0.0
182,2198660.8557268807
737,0.0
923,0.0
994,0.0
2,1, 1, 1, 0, 3, 0.00,60.00,Sunday
27,2198660.8557268807
63,0.0
182,2198660.8557268807
737,799022.9516304637
923,0.0
994,0.0
2,1, 1, 1, 0, 4, 0.00,60.00,Sunday
27,2198660.8557268807
63,0.0
182,2198660.8557268807
737,4177752.4956659956
923,0.0
994,0.0
2,1, 1, 1, 0, 5, 0.00,60.00,Sunday
27,2198660.8557268807
63,0.0
182,2198660.8557268807
737,7533797.205693369
923,0.0
994,0.0
2,1, 1, 1, 0, 6, 0.00,60.00,Sunday
27,2198660.8557268807
63,0.0
182,2198660.8557268807
737,48682245.005070108
923,0.0
994,0.0
2,1, 1, 1, 0, 7, 0.00,60.00,Sunday
27,2198660.8557268807
63,0.0
182,2198660.8557268807
737,44953591.467782478
923,0.0
994,0.0
2,1, 1, 1, 0, 8, 0.00,60.00,Sunday
27,49491381.369600009
63,14427817.200000002
182,35063564.1696
737,127117264.96884921
923,0.0
994,0.0
2,1, 1, 1, 0, 9, 0.00,60.00,Sunday
27,49491381.369600009
63,14427817.200000002
182,35063564.1696
737,111833754.61747223
923,0.0
994,0.0
2,1, 1, 1, 0,10, 0.00,60.00,Sunday
27,63238164.9696
63,28174600.799999998
182,35063564.1696
737,97289505.37080558
923,0.0
994,0.0
2,1, 1, 1, 0,11, 0.00,60.00,Sunday
27,21609097.304073119
63,13746783.6
182,7862313.704073121
737,69948105.61810898
923,0.0
994,0.0
2,1, 1, 1, 0,12, 0.00,60.00,Sunday
27,21609097.304073119
63,13746783.6
182,7862313.704073121
737,62460053.32831143
923,0.0
994,0.0
2,1, 1, 1, 0,13, 0.00,60.00,Sunday
27,21609097.304073119
63,13746783.6
182,7862313.704073121
737,56816991.27791561
923,0.0
994,0.0
2,1, 1, 1, 0,14, 0.00,60.00,Sunday
27,21609097.304073119
63,13746783.6
182,7862313.704073121
737,53426186.73266649
923,0.0
994,0.0
2,1, 1, 1, 0,15, 0.00,60.00,Sunday
27,21609097.304073119
63,13746783.6
182,7862313.704073121
737,51682691.79638725
923,0.0
994,0.0
2,1, 1, 1, 0,16, 0.00,60.00,Sunday
27,21609097.304073119
63,13746783.6
182,7862313.704073121
737,50677086.96365817
923,0.0
994,0.0
2,1, 1, 1, 0,17, 0.00,60.00,Sunday
27,21609097.304073119
63,13746783.6
182,7862313.704073121
737,50283955.56477787
923,0.0
994,0.0
2,1, 1, 1, 0,18, 0.00,60.00,Sunday
27,21609097.304073119
63,13746783.6
182,7862313.704073121
737,83651432.90251756
923,0.0
994,0.0
2,1, 1, 1, 0,19, 0.00,60.00,Sunday
27,21609097.304073119
63,13746783.6
182,7862313.704073121
737,76858787.10789159
923,0.0
994,0.0
2,1, 1, 1, 0,20, 0.00,60.00,Sunday
27,41477164.5971785
63,28174600.799999998
182,13302563.797178498
737,65668503.378204289
923,0.0
994,0.0
2,1, 1, 1, 0,21, 0.00,60.00,Sunday
27,41477164.5971785
63,28174600.799999998
182,13302563.797178498
737,63003955.80460137
923,0.0
994,0.0
2,1, 1, 1, 0,22, 0.00,60.00,Sunday
27,27730380.997178496
63,14427817.200000002
182,13302563.797178498
737,12371473.399582956
923,0.0
994,0.0
2,1, 1, 1, 0,23, 0.00,60.00,Sunday
27,27730380.997178496
63,14427817.200000002
182,13302563.797178498
737,11663936.426845614
923,0.0
994,0.0
2,1, 1, 1, 0,24, 0.00,60.00,Sunday
27,3897756.7102307525
63,0.0
182,3897756.7102307525
737,0.0
923,0.0
994,0.0
2,2, 1, 2, 0, 1, 0.00,60.00,Monday
27,2198660.8557268807
63,0.0
182,2198660.8557268807
737,0.0
923,0.0
994,0.0
2,2, 1, 2, 0, 2, 0.00,60.00,Monday
27,2198660.8557268807
63,0.0
182,2198660.8557268807
737,0.0
923,0.0
994,0.0
2,2, 1, 2, 0, 3, 0.00,60.00,Monday
27,2198660.8557268807
63,0.0
182,2198660.8557268807
737,0.0
923,0.0
994,0.0
2,2, 1, 2, 0, 4, 0.00,60.00,Monday
27,2198660.8557268807
63,0.0
182,2198660.8557268807
737,812956.8828507811
923,0.0
994,0.0
2,2, 1, 2, 0, 5, 0.00,60.00,Monday
27,2198660.8557268807
63,0.0
182,2198660.8557268807
737,3494854.257839176
923,0.0
994,0.0
2,2, 1, 2, 0, 6, 0.00,60.00,Monday
27,2198660.8557268807
63,0.0
182,2198660.8557268807
737,144898346.0364594
923,0.0
994,0.0
2,2, 1, 2, 0, 7, 0.00,60.00,Monday
27,2198660.8557268807
63,0.0
182,2198660.8557268807
737,123810121.93191096
923,0.0
994,0.0
2,2, 1, 2, 0, 8, 0.00,60.00,Monday
27,63238164.9696
63,28174600.799999998
182,35063564.1696
737,90347845.67821345
923,0.0
994,0.0
2,2, 1, 2, 0, 9, 0.00,60.00,Monday
27,63238164.9696
63,28174600.799999998
182,35063564.1696
737,84679196.61273793
923,0.0
994,0.0
2,2, 1, 2, 0,10, 0.00,60.00,Monday
27,63238164.9696
63,28174600.799999998
182,35063564.1696
737,76658185.02582312
923,0.0
994,0.0
2,2, 1, 2, 0,11, 0.00,60.00,Monday
27,7862313.704073121
63,0.0
182,7862313.704073121
737,0.0
923,0.0
994,0.0
2,2, 1, 2, 0,12, 0.00,60.00,Monday
27,7862313.704073121
63,0.0
182,7862313.704073121
737,0.0
923,0.0
994,0.0
2,2, 1, 2, 0,13, 0.00,60.00,Monday
27,7862313.704073121
63,0.0
182,7862313.704073121
737,0.0
923,0.0
994,0.0
2,2, 1, 2, 0,14, 0.00,60.00,Monday
27,7862313.704073121
63,0.0
182,7862313.704073121
737,0.0
923,0.0
994,0.0
2,2, 1, 2, 0,15, 0.00,60.00,Monday
27,7862313.704073121
63,0.0
182,7862313.704073121
737,0.0
923,0.0
994,0.0
2,2, 1, 2, 0,16, 0.00,60.00,Monday
27,7862313.704073121
63,0.0
182,7862313.704073121
737,87511621.57451329
923,0.0
994,0.0
2,2, 1, 2, 0,17, 0.00,60.00,Monday
27,7862313.704073121
63,0.0
182,7862313.704073121
737,70519690.5796173
923,0.0
994,0.0
2,2, 1, 2, 0,18, 0.00,60.00,Monday
27,21609097.304073119
63,13746783.6
182,7862313.704073121
737,92520186.94421503
923,0.0
994,0.0
2,2, 1, 2, 0,19, 0.00,60.00,Monday
27,21609097.304073119
63,13746783.6
182,7862313.704073121
737,84945010.76749614
923,0.0
994,0.0
2,2, 1, 2, 0,20, 0.00,60.00,Monday
27,41477164.5971785
63,28174600.799999998
182,13302563.797178498
737,75495939.59367979
923,0.0
994,0.0
2,2, 1, 2, 0,21, 0.00,60.00,Monday
27,41477164.5971785
63,28174600.799999998
182,13302563.797178498
737,74945802.78628065
923,0.0
994,0.0
2,2, 1, 2, 0,22, 0.00,60.00,Monday
27,41477164.5971785
63,28174600.799999998
182,13302563.797178498
737,74739937.42043388
923,0.0
994,0.0
2,2, 1, 2, 0,23, 0.00,60.00,Monday
27,41477164.5971785
63,28174600.799999998
182,13302563.797178498
737,72603156.88892234
923,0.0
994,0.0
2,2, 1, 2, 0,24, 0.00,60.00,Monday
27,17644540.310230756
63,13746783.6
182,3897756.7102307525
737,58714154.25412672
923,0.0
994,0.0
2,3, 1, 3, 0, 1, 0.00,60.00,Tuesday
27,2198660.8557268807
63,0.0
182,2198660.8557268807
737,0.0
923,0.0
994,0.0
2,3, 1, 3, 0, 2, 0.00,60.00,Tuesday
27,2198660.8557268807
63,0.0
182,2198660.8557268807
737,0.0
923,0.0
994,0.0
2,3, 1, 3, 0, 3, 0.00,60.00,Tuesday
27,2198660.8557268807
63,0.0
182,2198660.8557268807
737,0.0
923,0.0
994,0.0
2,3, 1, 3, 0, 4, 0.00,60.00,Tuesday
27,2198660.8557268807
63,0.0
182,2198660.8557268807
737,3589564.907661511
923,0.0
994,0.0
2,3, 1, 3, 0, 5, 0.00,60.00,Tuesday
27,2198660.8557268807
63,0.0
182,2198660.8557268807
737,10363620.966527256
923,0.0
994,0.0
2,3, 1, 3, 0, 6, 0.00,60.00,Tuesday
27,2198660.8557268807
63,0.0
182,2198660.8557268807
737,148270011.93017967
923,0.0
994,0.0
2,3, 1, 3, 0, 7, 0.00,60.00,Tuesday
27,2198660.8557268807
63,0.0
182,2198660.8557268807
737,134075873.70076448
923,0.0
994,0.0
2,3, 1, 3, 0, 8, 0.00,60.00,Tuesday
27,63238164.9696
63,28174600.799999998
182,35063564.1696
737,101539643.7795173
923,0.0
994,0.0
2,3, 1, 3, 0, 9, 0.00,60.00,Tuesday
27,63238164.9696
63,28174600.799999998
182,35063564.1696
737,93769665.09711738
923,0.0
994,0.0
2,3, 1, 3, 0,10, 0.00,60.00,Tuesday
27,63238164.9696
63,28174600.799999998
182,35063564.1696
737,84709191.91190014
923,0.0
994,0.0
2,3, 1, 3, 0,11, 0.00,60.00,Tuesday
27,7862313.704073121
63,0.0
182,7862313.704073121
737,0.0
923,0.0
994,0.0
2,3, 1, 3, 0,12, 0.00,60.00,Tuesday
27,7862313.704073121
63,0.0
182,7862313.704073121
737,0.0
923,0.0
994,0.0
2,3, 1, 3, 0,13, 0.00,60.00,Tuesday
27,7862313.704073121
63,0.0
182,7862313.704073121
737,0.0
923,0.0
994,0.0
2,3, 1, 3, 0,14, 0.00,60.00,Tuesday
27,7862313.704073121
63,0.0
182,7862313.704073121
737,0.0
923,0.0
994,0.0
2,3, 1, 3, 0,15, 0.00,60.00,Tuesday
27,7862313.704073121
63,0.0
182,7862313.704073121
737,0.0
923,0.0
994,0.0
2,3, 1, 3, 0,16, 0.00,60.00,Tuesday
27,7862313.704073121
63,0.0
182,7862313.704073121
737,96781355.33773232
923,0.0
994,0.0
2,3, 1, 3, 0,17, 0.00,60.00,Tuesday
27,7862313.704073121
63,0.0
182,7862313.704073121
737,80925496.90613032
923,0.0
994,0.0
2,3, 1, 3, 0,18, 0.00,60.00,Tuesday
27,21609097.304073119
63,13746783.6
182,7862313.704073121
737,102891467.87074174
923,0.0
994,0.0
2,3, 1, 3, 0,19, 0.00,60.00,Tuesday
27,21609097.304073119
63,13746783.6
182,7862313.704073121
737,92441153.05905459
923,0.0
994,0.0
2,3, 1, 3, 0,20, 0.00,60.00,Tuesday
27,41477164.5971785
63,28174600.799999998
182,13302563.797178498
737,79154337.17706216
923,0.0
994,0.0
2,3, 1, 3, 0,21, 0.00,60.00,Tuesday
27,41477164.5971785
63,28174600.799999998
182,13302563.797178498
737,75691509.68436769
923,0.0
994,0.0
2,3, 1, 3, 0,22, 0.00,60.00,Tuesday
27,41477164.5971785
63,28174600.799999998
182,13302563.797178498
737,72783374.51104877
923,0.0
994,0.0
2,3, 1, 3, 0,23, 0.00,60.00,Tuesday
27,41477164.5971785
63,28174600.799999998
182,13302563.797178498
737,69493031.59715283
923,0.0
994,0.0
2,3, 1, 3, 0,24, 0.00,60.00,Tuesday
27,17644540.310230756
63,13746783.6
182,3897756.7102307525
737,55902620.54974365
923,0.0
994,0.0
2,4, 1, 4, 0, 1, 0.00,60.00,Wednesday
27,2198660.8557268807
63,0.0
182,2198660.8557268807
737,0.0
923,0.0
994,0.0
2,4, 1, 4, 0, 2, 0.00,60.00,Wednesday
27,2198660.8557268807
63,0.0
182,2198660.8557268807
737,0.0
923,0.0
994,0.0
2,4, 1, 4, 0, 3, 0.00,60.00,Wednesday
27,2198660.8557268807
63,0.0
182,2198660.8557268807
737,0.0
923,0.0
994,0.0
2,4, 1, 4, 0, 4, 0.00,60.00,Wednesday
27,2198660.8557268807
63,0.0
182,2198660.8557268807
737,0.0
923,0.0
994,0.0
2,4, 1, 4, 0, 5, 0.00,60.00,Wednesday
27,2198660.8557268807
63,0.0
182,2198660.8557268807
737,962741.9696387962
923,0.0
994,0.0
2,4, 1, 4, 0, 6, 0.00,60.00,Wednesday
27,2198660.8557268807
63,0.0
182,2198660.8557268807
737,146220589.27306027
923,0.0
994,0.0
2,4, 1, 4, 0, 7, 0.00,60.00,Wednesday
27,2198660.8557268807
63,0.0
182,2198660.8557268807
737,127837202.03539986
923,0.0
994,0.0
2,4, 1, 4, 0, 8, 0.00,60.00,Wednesday
27,63238164.9696
63,28174600.799999998
182,35063564.1696
737,97377647.38191419
923,0.0
994,0.0
2,4, 1, 4, 0, 9, 0.00,60.00,Wednesday
27,63238164.9696
63,28174600.799999998
182,35063564.1696
737,91652877.54169716
923,0.0
994,0.0
2,4, 1, 4, 0,10, 0.00,60.00,Wednesday
27,63238164.9696
63,28174600.799999998
182,35063564.1696
737,82992902.81493746
923,0.0
994,0.0
2,4, 1, 4, 0,11, 0.00,60.00,Wednesday
27,7862313.704073121
63,0.0
182,7862313.704073121
737,0.0
923,0.0
994,0.0
2,4, 1, 4, 0,12, 0.00,60.00,Wednesday
27,7862313.704073121
63,0.0
182,7862313.704073121
737,0.0
923,0.0
994,0.0
2,4, 1, 4, 0,13, 0.00,60.00,Wednesday
27,7862313.704073121
63,0.0
182,7862313.704073121
737,0.0
923,0.0
994,0.0
2,4, 1, 4, 0,14, 0.00,60.00,Wednesday
27,7862313.704073121
63,0.0
182,7862313.704073121
737,0.0
923,0.0
994,0.0
2,4, 1, 4, 0,15, 0.00,60.00,Wednesday
27,7862313.704073121
63,0.0
182,7862313.704073121
737,0.0
923,0.0
994,0.0
2,4, 1, 4, 0,16, 0.00,60.00,Wednesday
27,7862313.704073121
63,0.0
182,7862313.704073121
737,98635924.3910555
923,0.0
994,0.0
2,4, 1, 4, 0,17, 0.00,60.00,Wednesday
27,7862313.704073121
63,0.0
182,7862313.704073121
737,81888623.06690781
923,0.0
994,0.0
2,4, 1, 4, 0,18, 0.00,60.00,Wednesday
27,21609097.304073119
63,13746783.6
182,7862313.704073121
737,107327421.05569783
923,0.0
994,0.0
2,4, 1, 4, 0,19, 0.00,60.00,Wednesday
27,21609097.304073119
63,13746783.6
182,7862313.704073121
737,100917588.5785476
923,0.0
994,0.0
2,4, 1, 4, 0,20, 0.00,60.00,Wednesday
27,41477164.5971785
63,28174600.799999998
182,13302563.797178498
737,86898597.82576809
923,0.0
994,0.0
2,4, 1, 4, 0,21, 0.00,60.00,Wednesday
27,41477164.5971785
63,28174600.799999998
182,13302563.797178498
737,80606981.07255925
923,0.0
994,0.0
2,4, 1, 4, 0,22, 0.00,60.00,Wednesday
27,41477164.5971785
63,28174600.799999998
182,13302563.797178498
737,74101713.80226413
923,0.0
994,0.0
2,4, 1, 4, 0,23, 0.00,60.00,Wednesday
27,41477164.5971785
63,28174600.799999998
182,13302563.797178498
737,74048834.05994885
923,0.0
994,0.0
2,4, 1, 4, 0,24, 0.00,60.00,Wednesday
27,17644540.310230756
63,13746783.6
182,3897756.7102307525
737,62785548.627950448
923,0.0
994,0.0
2,5, 1, 5, 0, 1, 0.00,60.00,Thursday
27,2198660.8557268807
63,0.0
182,2198660.8557268807
737,0.0
923,0.0
994,0.0
2,5, 1, 5, 0, 2, 0.00,60.00,Thursday
27,2198660.8557268807
63,0.0
182,2198660.8557268807
737,47906.40102085763
923,0.0
994,0.0
2,5, 1, 5, 0, 3, 0.00,60.00,Thursday
27,2198660.8557268807
63,0.0
182,2198660.8557268807
737,8374326.242261417
923,0.0
994,0.0
2,5, 1, 5, 0, 4, 0.00,60.00,Thursday
27,2198660.8557268807
63,0.0
182,2198660.8557268807
737,22309906.45436281
923,0.0
994,0.0
2,5, 1, 5, 0, 5, 0.00,60.00,Thursday
27,2198660.8557268807
63,0.0
182,2198660.8557268807
737,29961969.438337923
923,0.0
994,0.0
2,5, 1, 5, 0, 6, 0.00,60.00,Thursday
27,2198660.8557268807
63,0.0
182,2198660.8557268807
737,148454261.6834172
923,0.0
994,0.0
2,5, 1, 5, 0, 7, 0.00,60.00,Thursday
27,2198660.8557268807
63,0.0
182,2198660.8557268807
737,148454261.68341593
923,0.0
994,0.0
2,5, 1, 5, 0, 8, 0.00,60.00,Thursday
27,63238164.9696
63,28174600.799999998
182,35063564.1696
737,135951510.9966339
923,0.0
994,0.0
2,5, 1, 5, 0, 9, 0.00,60.00,Thursday
27,63238164.9696
63,28174600.799999998
182,35063564.1696
737,123744008.15873789
923,0.0
994,0.0
2,5, 1, 5, 0,10, 0.00,60.00,Thursday
27,63238164.9696
63,28174600.799999998
182,35063564.1696
737,99670781.94031418
923,0.0
994,0.0
2,5, 1, 5, 0,11, 0.00,60.00,Thursday
27,7862313.704073121
63,0.0
182,7862313.704073121
737,0.0
923,0.0
994,0.0
2,5, 1, 5, 0,12, 0.00,60.00,Thursday
27,7862313.704073121
63,0.0
182,7862313.704073121
737,0.0
923,0.0
994,0.0
2,5, 1, 5, 0,13, 0.00,60.00,Thursday
27,7862313.704073121
63,0.0
182,7862313.704073121
737,0.0
923,0.0
994,0.0
2,5, 1, 5, 0,14, 0.00,60.00,Thursday
27,7862313.704073121
63,0.0
182,7862313.704073121
737,0.0
923,0.0
994,0.0
2,5, 1, 5, 0,15, 0.00,60.00,Thursday
27,7862313.704073121
63,0.0
182,7862313.704073121
737,0.0
923,0.0
994,0.0
2,5, 1, 5, 0,16, 0.00,60.00,Thursday
27,7862313.704073121
63,0.0
182,7862313.704073121
737,93368474.2996428
923,0.0
994,0.0
2,5, 1, 5, 0,17, 0.00,60.00,Thursday
27,7862313.704073121
63,0.0
182,7862313.704073121
737,75966900.27024397
923,0.0
994,0.0
2,5, 1, 5, 0,18, 0.00,60.00,Thursday
27,21609097.304073119
63,13746783.6
182,7862313.704073121
737,104299435.02175296
923,0.0
994,0.0
2,5, 1, 5, 0,19, 0.00,60.00,Thursday
27,21609097.304073119
63,13746783.6
182,7862313.704073121
737,99087872.4153167
923,0.0
994,0.0
2,5, 1, 5, 0,20, 0.00,60.00,Thursday
27,41477164.5971785
63,28174600.799999998
182,13302563.797178498
737,87689487.87318632
923,0.0
994,0.0
2,5, 1, 5, 0,21, 0.00,60.00,Thursday
27,41477164.5971785
63,28174600.799999998
182,13302563.797178498
737,84749806.19230137
923,0.0
994,0.0
2,5, 1, 5, 0,22, 0.00,60.00,Thursday
27,41477164.5971785
63,28174600.799999998
182,13302563.797178498
737,81793076.54814771
923,0.0
994,0.0
2,5, 1, 5, 0,23, 0.00,60.00,Thursday
27,41477164.5971785
63,28174600.799999998
182,13302563.797178498
737,78633736.54340711
923,0.0
994,0.0
2,5, 1, 5, 0,24, 0.00,60.00,Thursday
27,17644540.310230756
63,13746783.6
182,3897756.7102307525
737,62050685.03557055
923,0.0
994,0.0
2,6, 1, 6, 0, 1, 0.00,60.00,Friday
27,2198660.8557268807
63,0.0
182,2198660.8557268807
737,0.0
923,0.0
994,0.0
2,6, 1, 6, 0, 2, 0.00,60.00,Friday
27,2198660.8557268807
63,0.0
182,2198660.8557268807
737,0.0
923,0.0
994,0.0
2,6, 1, 6, 0, 3, 0.00,60.00,Friday
27,2198660.8557268807
63,0.0
182,2198660.8557268807
737,111308.03555419034
923,0.0
994,0.0
2,6, 1, 6, 0, 4, 0.00,60.00,Friday
27,2198660.8557268807
63,0.0
182,2198660.8557268807
737,5549301.901459194
923,0.0
994,0.0
2,6, 1, 6, 0, 5, 0.00,60.00,Friday
27,2198660.8557268807
63,0.0
182,2198660.8557268807
737,12546687.750161749
923,0.0
994,0.0
2,6, 1, 6, 0, 6, 0.00,60.00,Friday
27,2198660.8557268807
63,0.0
182,2198660.8557268807
737,148423800.43505029
923,0.0
994,0.0
2,6, 1, 6, 0, 7, 0.00,60.00,Friday
27,2198660.8557268807
63,0.0
182,2198660.8557268807
737,140937393.84767426
923,0.0
994,0.0
2,6, 1, 6, 0, 8, 0.00,60.00,Friday
27,63238164.9696
63,28174600.799999998
182,35063564.1696
737,108816177.98634124
923,0.0
994,0.0
2,6, 1, 6, 0, 9, 0.00,60.00,Friday
27,63238164.9696
63,28174600.799999998
182,35063564.1696
737,101767256.46538294
923,0.0
994,0.0
2,6, 1, 6, 0,10, 0.00,60.00,Friday
27,63238164.9696
63,28174600.799999998
182,35063564.1696
737,91384782.44968212
923,0.0
994,0.0
2,6, 1, 6, 0,11, 0.00,60.00,Friday
27,7862313.704073121
63,0.0
182,7862313.704073121
737,0.0
923,0.0
994,0.0
2,6, 1, 6, 0,12, 0.00,60.00,Friday
27,7862313.704073121
63,0.0
182,7862313.704073121
737,0.0
923,0.0
994,0.0
2,6, 1, 6, 0,13, 0.00,60.00,Friday
27,7862313.704073121
63,0.0
182,7862313.704073121
737,0.0
923,0.0
994,0.0
2,6, 1, 6, 0,14, 0.00,60.00,Friday
27,7862313.704073121
63,0.0
182,7862313.704073121
737,0.0
923,0.0
994,0.0
2,6, 1, 6, 0,15, 0.00,60.00,Friday
27,7862313.704073121
63,0.0
182,7862313.704073121
737,0.0
923,0.0
994,0.0
2,6, 1, 6, 0,16, 0.00,60.00,Friday
27,7862313.704073121
63,0.0
182,7862313.704073121
737,98316328.15600428
923,0.0
994,0.0
2,6, 1, 6, 0,17, 0.00,60.00,Friday
27,7862313.704073121
63,0.0
182,7862313.704073121
737,83766190.53479643
923,0.0
994,0.0
2,6, 1, 6, 0,18, 0.00,60.00,Friday
27,21609097.304073119
63,13746783.6
182,7862313.704073121
737,111175677.18400988
923,0.0
994,0.0
2,6, 1, 6, 0,19, 0.00,60.00,Friday
27,21609097.304073119
63,13746783.6
182,7862313.704073121
737,107753494.08551914
923,0.0
994,0.0
2,6, 1, 6, 0,20, 0.00,60.00,Friday
27,41477164.5971785
63,28174600.799999998
182,13302563.797178498
737,97638272.8032766
923,0.0
994,0.0
2,6, 1, 6, 0,21, 0.00,60.00,Friday
27,41477164.5971785
63,28174600.799999998
182,13302563.797178498
737,95684168.2765876
923,0.0
994,0.0
2,6, 1, 6, 0,22, 0.00,60.00,Friday
27,41477164.5971785
63,28174600.799999998
182,13302563.797178498
737,93614589.36772868
923,0.0
994,0.0
2,6, 1, 6, 0,23, 0.00,60.00,Friday
27,41477164.5971785
63,28174600.799999998
182,13302563.797178498
737,92064404.78379807
923,0.0
994,0.0
2,6, 1, 6, 0,24, 0.00,60.00,Friday
27,17644540.310230756
63,13746783.6
182,3897756.7102307525
737,72995202.53823155
923,0.0
994,0.0
2,7, 1, 7, 0, 1, 0.00,60.00,Saturday
27,2198660.8557268807
63,0.0
182,2198660.8557268807
737,0.0
923,0.0
994,0.0
2,7, 1, 7, 0, 2, 0.00,60.00,Saturday
27,2198660.8557268807
63,0.0
182,2198660.8557268807
737,2741409.1272423507
923,0.0
994,0.0
2,7, 1, 7, 0, 3, 0.00,60.00,Saturday
27,2198660.8557268807
63,0.0
182,2198660.8557268807
737,16689708.857843284
923,0.0
994,0.0
2,7, 1, 7, 0, 4, 0.00,60.00,Saturday
27,2198660.8557268807
63,0.0
182,2198660.8557268807
737,25531728.027369974
923,0.0
994,0.0
2,7, 1, 7, 0, 5, 0.00,60.00,Saturday
27,2198660.8557268807
63,0.0
182,2198660.8557268807
737,31634207.472232827
923,0.0
994,0.0
2,7, 1, 7, 0, 6, 0.00,60.00,Saturday
27,2198660.8557268807
63,0.0
182,2198660.8557268807
737,66731434.99470456
923,0.0
994,0.0
2,7, 1, 7, 0, 7, 0.00,60.00,Saturday
27,2198660.8557268807
63,0.0
182,2198660.8557268807
737,68956959.66332148
923,0.0
994,0.0
2,7, 1, 7, 0, 8, 0.00,60.00,Saturday
27,49491381.369600009
63,14427817.200000002
182,35063564.1696
737,140886198.6016869
923,0.0
994,0.0
2,7, 1, 7, 0, 9, 0.00,60.00,Saturday
27,49491381.369600009
63,14427817.200000002
182,35063564.1696
737,134963455.6108234
923,0.0
994,0.0
2,7, 1, 7, 0,10, 0.00,60.00,Saturday
27,63238164.9696
63,28174600.799999998
182,35063564.1696
737,128883527.60177674
923,0.0
994,0.0
2,7, 1, 7, 0,11, 0.00,60.00,Saturday
27,21609097.304073119
63,13746783.6
182,7862313.704073121
737,85423119.09424696
923,0.0
994,0.0
2,7, 1, 7, 0,12, 0.00,60.00,Saturday
27,21609097.304073119
63,13746783.6
182,7862313.704073121
737,66979459.345778528
923,0.0
994,0.0
2,7, 1, 7, 0,13, 0.00,60.00,Saturday
27,21609097.304073119
63,13746783.6
182,7862313.704073121
737,51257630.076354447
923,0.0
994,0.0
2,7, 1, 7, 0,14, 0.00,60.00,Saturday
27,21609097.304073119
63,13746783.6
182,7862313.704073121
737,41785357.32813151
923,0.0
994,0.0
2,7, 1, 7, 0,15, 0.00,60.00,Saturday
27,21609097.304073119
63,13746783.6
182,7862313.704073121
737,42928052.12524387
923,0.0
994,0.0
2,7, 1, 7, 0,16, 0.00,60.00,Saturday
27,21609097.304073119
63,13746783.6
182,7862313.704073121
737,45204936.333449419
923,0.0
994,0.0
2,7, 1, 7, 0,17, 0.00,60.00,Saturday
27,21609097.304073119
63,13746783.6
182,7862313.704073121
737,47110778.93143318
923,0.0
994,0.0
2,7, 1, 7, 0,18, 0.00,60.00,Saturday
27,21609097.304073119
63,13746783.6
182,7862313.704073121
737,86222318.95548173
923,0.0
994,0.0
2,7, 1, 7, 0,19, 0.00,60.00,Saturday
27,21609097.304073119
63,13746783.6
182,7862313.704073121
737,85975257.6752724
923,0.0
994,0.0
2,7, 1, 7, 0,20, 0.00,60.00,Saturday
27,41477164.5971785
63,28174600.799999998
182,13302563.797178498
737,78631432.49113423
923,0.0
994,0.0
2,7, 1, 7, 0,21, 0.00,60.00,Saturday
27,41477164.5971785
63,28174600.799999998
182,13302563.797178498
737,77171160.35260451
923,0.0
994,0.0
2,7, 1, 7, 0,22, 0.00,60.00,Saturday
27,27730380.997178496
63,14427817.200000002
182,13302563.797178498
737,16721376.643866606
923,0.0
994,0.0
2,7, 1, 7, 0,23, 0.00,60.00,Saturday
27,27730380.997178496
63,14427817.200000002
182,13302563.797178498
737,15990909.854984779
923,0.0
994,0.0
2,7, 1, 7, 0,24, 0.00,60.00,Saturday
27,3897756.7102307525
63,0.0
182,3897756.7102307525
737,0.0
923,0.0
994,0.0
2,8, 1, 8, 0, 1, 0.00,60.00,Sunday
27,2198660.8557268807
63,0.0
182,2198660.8557268807
737,0.0
923,0.0
994,0.0
2,8, 1, 8, 0, 2, 0.00,60.00,Sunday
27,2198660.8557268807
63,0.0
182,2198660.8557268807
737,5000808.440625021
923,0.0
994,0.0
2,8, 1, 8, 0, 3, 0.00,60.00,Sunday
27,2198660.8557268807
63,0.0
182,2198660.8557268807
737,13048352.717797863
923,0.0
994,0.0
2,8, 1, 8, 0, 4, 0.00,60.00,Sunday
27,2198660.8557268807
63,0.0
182,2198660.8557268807
737,21807416.33999666
923,0.0
994,0.0
2,8, 1, 8, 0, 5, 0.00,60.00,Sunday
27,2198660.8557268807
63,0.0
182,2198660.8557268807
737,27740953.820577124
923,0.0
994,0.0
2,8, 1, 8, 0, 6, 0.00,60.00,Sunday
27,2198660.8557268807
63,0.0
182,2198660.8557268807
737,64707752.84347209
923,0.0
994,0.0
2,8, 1, 8, 0, 7, 0.00,60.00,Sunday
27,2198660.8557268807
63,0.0
182,2198660.8557268807
737,67143495.1134608
923,0.0
994,0.0
2,8, 1, 8, 0, 8, 0.00,60.00,Sunday
27,49491381.369600009
63,14427817.200000002
182,35063564.1696
737,138079025.23590864
923,0.0
994,0.0
2,8, 1, 8, 0, 9, 0.00,60.00,Sunday
27,49491381.369600009
63,14427817.200000002
182,35063564.1696
737,132759026.81685041
923,0.0
994,0.0
2,8, 1, 8, 0,10, 0.00,60.00,Sunday
27,63238164.9696
63,28174600.799999998
182,35063564.1696
737,123886945.49591898
923,0.0
994,0.0
2,8, 1, 8, 0,11, 0.00,60.00,Sunday
27,21609097.304073119
63,13746783.6
182,7862313.704073121
737,87404688.69110519
923,0.0
994,0.0
2,8, 1, 8, 0,12, 0.00,60.00,Sunday
27,21609097.304073119
63,13746783.6
182,7862313.704073121
737,75821044.51849482
923,0.0
994,0.0
2,8, 1, 8, 0,13, 0.00,60.00,Sunday
27,21609097.304073119
63,13746783.6
182,7862313.704073121
737,66550657.15981603
923,0.0
994,0.0
2,8, 1, 8, 0,14, 0.00,60.00,Sunday
27,21609097.304073119
63,13746783.6
182,7862313.704073121
737,62407717.90909338
923,0.0
994,0.0
2,8, 1, 8, 0,15, 0.00,60.00,Sunday
27,21609097.304073119
63,13746783.6
182,7862313.704073121
737,60536629.67022471
923,0.0
994,0.0
2,8, 1, 8, 0,16, 0.00,60.00,Sunday
27,21609097.304073119
63,13746783.6
182,7862313.704073121
737,59955398.88587481
923,0.0
994,0.0
2,8, 1, 8, 0,17, 0.00,60.00,Sunday
27,21609097.304073119
63,13746783.6
182,7862313.704073121
737,61031261.16443421
923,0.0
994,0.0
2,8, 1, 8, 0,18, 0.00,60.00,Sunday
27,21609097.304073119
63,13746783.6
182,7862313.704073121
737,100236950.05319339
923,0.0
994,0.0
2,8, 1, 8, 0,19, 0.00,60.00,Sunday
27,21609097.304073119
63,13746783.6
182,7862313.704073121
737,96318909.26019968
923,0.0
994,0.0
2,8, 1, 8, 0,20, 0.00,60.00,Sunday
27,41477164.5971785
63,28174600.799999998
182,13302563.797178498
737,84812269.50576726
923,0.0
994,0.0
2,8, 1, 8, 0,21, 0.00,60.00,Sunday
27,41477164.5971785
63,28174600.799999998
182,13302563.797178498
737,81580612.62616289
923,0.0
994,0.0
2,8, 1, 8, 0,22, 0.00,60.00,Sunday
27,27730380.997178496
63,14427817.200000002
182,13302563.797178498
737,17598785.619861645
923,0.0
994,0.0
2,8, 1, 8, 0,23, 0.00,60.00,Sunday
27,27730380.997178496
63,14427817.200000002
182,13302563.797178498
737,16595183.550653799
923,0.0
994,0.0
2,8, 1, 8, 0,24, 0.00,60.00,Sunday
27,3897756.7102307525
63,0.0
182,3897756.7102307525
737,0.0
923,0.0
994,0.0
2,9, 1, 9, 0, 1, 0.00,60.00,Monday
27,2198660.8557268807
63,0.0
182,2198660.8557268807
737,285980.0043127986
923,0.0
994,0.0
2,9, 1, 9, 0, 2, 0.00,60.00,Monday
27,2198660.8557268807
63,0.0
182,2198660.8557268807
737,5349100.216427158
923,0.0
994,0.0
2,9, 1, 9, 0, 3, 0.00,60.00,Monday
27,2198660.8557268807
63,0.0
182,2198660.8557268807
737,9600689.18377509
923,0.0
994,0.0
2,9, 1, 9, 0, 4, 0.00,60.00,Monday
27,2198660.8557268807
63,0.0
182,2198660.8557268807
737,14537230.845977832
923,0.0
994,0.0
2,9, 1, 9, 0, 5, 0.00,60.00,Monday
27,2198660.8557268807
63,0.0
182,2198660.8557268807
737,17922801.970293665
923,0.0
994,0.0
2,9, 1, 9, 0, 6, 0.00,60.00,Monday
27,2198660.8557268807
63,0.0
182,2198660.8557268807
737,148037491.54363237
923,0.0
994,0.0
2,9, 1, 9, 0, 7, 0.00,60.00,Monday
27,2198660.8557268807
63,0.0
182,2198660.8557268807
737,142774729.52097235
923,0.0
994,0.0
2,9, 1, 9, 0, 8, 0.00,60.00,Monday
27,63238164.9696
63,28174600.799999998
182,35063564.1696
737,107184834.06735125
923,0.0
994,0.0
2,9, 1, 9, 0, 9, 0.00,60.00,Monday
27,63238164.9696
63,28174600.799999998
182,35063564.1696
737,96249675.27222161
923,0.0
994,0.0
2,9, 1, 9, 0,10, 0.00,60.00,Monday
27,63238164.9696
63,28174600.799999998
182,35063564.1696
737,85380129.88849719
923,0.0
994,0.0
2,9, 1, 9, 0,11, 0.00,60.00,Monday
27,7862313.704073121
63,0.0
182,7862313.704073121
737,0.0
923,0.0
994,0.0
2,9, 1, 9, 0,12, 0.00,60.00,Monday
27,7862313.704073121
63,0.0
182,7862313.704073121
737,0.0
923,0.0
994,0.0
2,9, 1, 9, 0,13, 0.00,60.00,Monday
27,7862313.704073121
63,0.0
182,7862313.704073121
737,0.0
923,0.0
994,0.0
2,9, 1, 9, 0,14, 0.00,60.00,Monday
27,7862313.704073121
63,0.0
182,7862313.704073121
737,0.0
923,0.0
994,0.0
2,9, 1, 9, 0,15, 0.00,60.00,Monday
27,7862313.704073121
63,0.0
182,7862313.704073121
737,0.0
923,0.0
994,0.0
2,9, 1, 9, 0,16, 0.00,60.00,Monday
27,7862313.704073121
63,0.0
182,7862313.704073121
737,78178368.9290083
923,0.0
994,0.0
2,9, 1, 9, 0,17, 0.00,60.00,Monday
27,7862313.704073121
63,0.0
182,7862313.704073121
737,64036494.2519945
923,0.0
994,0.0
2,9, 1, 9, 0,18, 0.00,60.00,Monday
27,21609097.304073119
63,13746783.6
182,7862313.704073121
737,89934432.90795219
923,0.0
994,0.0
2,9, 1, 9, 0,19, 0.00,60.00,Monday
27,21609097.304073119
63,13746783.6
182,7862313.704073121
737,88555856.43439847
923,0.0
994,0.0
2,9, 1, 9, 0,20, 0.00,60.00,Monday
27,41477164.5971785
63,28174600.799999998
182,13302563.797178498
737,83246263.17184992
923,0.0
994,0.0
2,9, 1, 9, 0,21, 0.00,60.00,Monday
27,41477164.5971785
63,28174600.799999998
182,13302563.797178498
737,85492013.86033663
923,0.0
994,0.0
2,9, 1, 9, 0,22, 0.00,60.00,Monday
27,41477164.5971785
63,28174600.799999998
182,13302563.797178498
737,87609104.49041176
923,0.0
994,0.0
2,9, 1, 9, 0,23, 0.00,60.00,Monday
27,41477164.5971785
63,28174600.799999998
182,13302563.797178498
737,86354278.89313463
923,0.0
994,0.0
2,9, 1, 9, 0,24, 0.00,60.00,Monday
27,17644540.310230756
63,13746783.6
182,3897756.7102307525
737,68124455.8318573
923,0.0
994,0.0
2,10, 1,10, 0, 1, 0.00,60.00,Tuesday
27,2198660.8557268807
63,0.0
182,2198660.8557268807
737,0.0
923,0.0
994,0.0
2,10, 1,10, 0, 2, 0.00,60.00,Tuesday
27,2198660.8557268807
63,0.0
182,2198660.8557268807
737,375345.7628100037
923,0.0
994,0.0
2,10, 1,10, 0, 3, 0.00,60.00,Tuesday
27,2198660.8557268807
63,0.0
182,2198660.8557268807
737,11134906.033806093
923,0.0
994,0.0
2,10, 1,10, 0, 4, 0.00,60.00,Tuesday
27,2198660.8557268807
63,0.0
182,2198660.8557268807
737,21085982.44256784
923,0.0
994,0.0
2,10, 1,10, 0, 5, 0.00,60.00,Tuesday
27,2198660.8557268807
63,0.0
182,2198660.8557268807
737,27648079.354728834
923,0.0
994,0.0
2,10, 1,10, 0, 6, 0.00,60.00,Tuesday
27,2198660.8557268807
63,0.0
182,2198660.8557268807
737,148454261.68341715
923,0.0
994,0.0
2,10, 1,10, 0, 7, 0.00,60.00,Tuesday
27,2198660.8557268807
63,0.0
182,2198660.8557268807
737,148454261.68341548
923,0.0
994,0.0
2,10, 1,10, 0, 8, 0.00,60.00,Tuesday
27,63238164.9696
63,28174600.799999998
182,35063564.1696
737,123067463.69737508
923,0.0
994,0.0
2,10, 1,10, 0, 9, 0.00,60.00,Tuesday
27,63238164.9696
63,28174600.799999998
182,35063564.1696
737,110016388.92324004
923,0.0
994,0.0
2,10, 1,10, 0,10, 0.00,60.00,Tuesday
27,63238164.9696
63,28174600.799999998
182,35063564.1696