Program Version,EnergyPlus, Version 9.0.1-bb7ca4f0da, YMD=2021.01.02 20:54
1,5,Environment Title[],Latitude[deg],Longitude[deg],Time Zone[],Elevation[m]
2,8,Day of Simulation[],Month[],Day of Month[],DST Indicator[1=yes 0=no],Hour[],StartMinute[],EndMinute[],DayType
3,5,Cumulative Day of Simulation[],Month[],Day of Month[],DST Indicator[1=yes 0=no],DayType  ! When Daily Report Variables Requested
4,2,Cumulative Days of Simulation[],Month[]  ! When Monthly Report Variables Requested
5,1,Cumulative Days of Simulation[] ! When Run Period Report Variables Requested
6,1,Calendar Year of Simulation[] ! When Annual Report Variables Requested
7,9,Environment,Site Outdoor Air Drybulb Temperature [C] !Monthly [Value,Min,Day,Hour,Minute,Max,Day,Hour,Minute]
8,11,Environment,Site Outdoor Air Drybulb Temperature [C] !RunPeriod [Value,Min,Month,Day,Hour,Minute,Max,Month,Day,Hour,Minute]
9,9,Environment,Site Outdoor Air Dewpoint Temperature [C] !Monthly [Value,Min,Day,Hour,Minute,Max,Day,Hour,Minute]
10,11,Environment,Site Outdoor Air Dewpoint Temperature [C] !RunPeriod [Value,Min,Month,Day,Hour,Minute,Max,Month,Day,Hour,Minute]
11,9,Environment,Site Outdoor Air Barometric Pressure [Pa] !Monthly [Value,Min,Day,Hour,Minute,Max,Day,Hour,Minute]
12,11,Environment,Site Outdoor Air Barometric Pressure [Pa] !RunPeriod [Value,Min,Month,Day,Hour,Minute,Max,Month,Day,Hour,Minute]
13,9,Environment,Site Wind Speed [m/s] !Monthly [Value,Min,Day,Hour,Minute,Max,Day,Hour,Minute]
14,11,Environment,Site Wind Speed [m/s] !RunPeriod [Value,Min,Month,Day,Hour,Minute,Max,Month,Day,Hour,Minute]
15,9,Environment,Site Wind Direction [deg] !Monthly [Value,Min,Day,Hour,Minute,Max,Day,Hour,Minute]
16,11,Environment,Site Wind Direction [deg] !RunPeriod [Value,Min,Month,Day,Hour,Minute,Max,Month,Day,Hour,Minute]
17,9,Environment,Site Diffuse Solar Radiation Rate per Area [W/m2] !Monthly [Value,Min,Day,Hour,Minute,Max,Day,Hour,Minute]
18,11,Environment,Site Diffuse Solar Radiation Rate per Area [W/m2] !RunPeriod [Value,Min,Month,Day,Hour,Minute,Max,Month,Day,Hour,Minute]
19,9,Environment,Site Direct Solar Radiation Rate per Area [W/m2] !Monthly [Value,Min,Day,Hour,Minute,Max,Day,Hour,Minute]
20,11,Environment,Site Direct Solar Radiation Rate per Area [W/m2] !RunPeriod [Value,Min,Month,Day,Hour,Minute,Max,Month,Day,Hour,Minute]
21,9,Environment,Site Solar Azimuth Angle [deg] !Monthly [Value,Min,Day,Hour,Minute,Max,Day,Hour,Minute]
22,11,Environment,Site Solar Azimuth Angle [deg] !RunPeriod [Value,Min,Month,Day,Hour,Minute,Max,Month,Day,Hour,Minute]
23,9,Environment,Site Solar Altitude Angle [deg] !Monthly [Value,Min,Day,Hour,Minute,Max,Day,Hour,Minute]
24,11,Environment,Site Solar Altitude Angle [deg] !RunPeriod [Value,Min,Month,Day,Hour,Minute,Max,Month,Day,Hour,Minute]
25,9,BLOCK1:ZONE3,Zone Total Internal Latent Gain Energy [J] !Monthly [Value,Min,Day,Hour,Minute,Max,Day,Hour,Minute]
26,11,BLOCK1:ZONE3,Zone Total Internal Latent Gain Energy [J] !RunPeriod [Value,Min,Month,Day,Hour,Minute,Max,Month,Day,Hour,Minute]
27,9,BLOCK1:ZONE1,Zone Total Internal Latent Gain Energy [J] !Monthly [Value,Min,Day,Hour,Minute,Max,Day,Hour,Minute]
28,11,BLOCK1:ZONE1,Zone Total Internal Latent Gain Energy [J] !RunPeriod [Value,Min,Month,Day,Hour,Minute,Max,Month,Day,Hour,Minute]
29,9,BLOCK1:ZONE4,Zone Total Internal Latent Gain Energy [J] !Monthly [Value,Min,Day,Hour,Minute,Max,Day,Hour,Minute]
30,11,BLOCK1:ZONE4,Zone Total Internal Latent Gain Energy [J] !RunPeriod [Value,Min,Month,Day,Hour,Minute,Max,Month,Day,Hour,Minute]
31,9,BLOCK1:ZONE2,Zone Total Internal Latent Gain Energy [J] !Monthly [Value,Min,Day,Hour,Minute,Max,Day,Hour,Minute]
32,11,BLOCK1:ZONE2,Zone Total Internal Latent Gain Energy [J] !RunPeriod [Value,Min,Month,Day,Hour,Minute,Max,Month,Day,Hour,Minute]
33,9,BLOCK1:ZONE3,Zone People Sensible Heating Rate [W] !Monthly [Value,Min,Day,Hour,Minute,Max,Day,Hour,Minute]
34,11,BLOCK1:ZONE3,Zone People Sensible Heating Rate [W] !RunPeriod [Value,Min,Month,Day,Hour,Minute,Max,Month,Day,Hour,Minute]
35,9,BLOCK1:ZONE1,Zone People Sensible Heating Rate [W] !Monthly [Value,Min,Day,Hour,Minute,Max,Day,Hour,Minute]
36,11,BLOCK1:ZONE1,Zone People Sensible Heating Rate [W] !RunPeriod [Value,Min,Month,Day,Hour,Minute,Max,Month,Day,Hour,Minute]
37,9,BLOCK1:ZONE4,Zone People Sensible Heating Rate [W] !Monthly [Value,Min,Day,Hour,Minute,Max,Day,Hour,Minute]
38,11,BLOCK1:ZONE4,Zone People Sensible Heating Rate [W] !RunPeriod [Value,Min,Month,Day,Hour,Minute,Max,Month,Day,Hour,Minute]
39,9,BLOCK1:ZONE2,Zone People Sensible Heating Rate [W] !Monthly [Value,Min,Day,Hour,Minute,Max,Day,Hour,Minute]
40,11,BLOCK1:ZONE2,Zone People Sensible Heating Rate [W] !RunPeriod [Value,Min,Month,Day,Hour,Minute,Max,Month,Day,Hour,Minute]
41,9,BLOCK1:ZONE3,Lights Total Heating Rate [W] !Monthly [Value,Min,Day,Hour,Minute,Max,Day,Hour,Minute]
42,11,BLOCK1:ZONE3,Lights Total Heating Rate [W] !RunPeriod [Value,Min,Month,Day,Hour,Minute,Max,Month,Day,Hour,Minute]
116,9,BLOCK1:ZONE3,Zone Lights Electric Power [W] !Monthly [Value,Min,Day,Hour,Minute,Max,Day,Hour,Minute]
117,11,BLOCK1:ZONE3,Zone Lights Electric Power [W] !RunPeriod [Value,Min,Month,Day,Hour,Minute,Max,Month,Day,Hour,Minute]
118,9,BLOCK1:ZONE1,Lights Total Heating Rate [W] !Monthly [Value,Min,Day,Hour,Minute,Max,Day,Hour,Minute]
119,11,BLOCK1:ZONE1,Lights Total Heating Rate [W] !RunPeriod [Value,Min,Month,Day,Hour,Minute,Max,Month,Day,Hour,Minute]
145,9,BLOCK1:ZONE1,Zone Lights Electric Power [W] !Monthly [Value,Min,Day,Hour,Minute,Max,Day,Hour,Minute]
146,11,BLOCK1:ZONE1,Zone Lights Electric Power [W] !RunPeriod [Value,Min,Month,Day,Hour,Minute,Max,Month,Day,Hour,Minute]
147,9,BLOCK1:ZONE4,Lights Total Heating Rate [W] !Monthly [Value,Min,Day,Hour,Minute,Max,Day,Hour,Minute]
148,11,BLOCK1:ZONE4,Lights Total Heating Rate [W] !RunPeriod [Value,Min,Month,Day,Hour,Minute,Max,Month,Day,Hour,Minute]
174,9,BLOCK1:ZONE4,Zone Lights Electric Power [W] !Monthly [Value,Min,Day,Hour,Minute,Max,Day,Hour,Minute]
175,11,BLOCK1:ZONE4,Zone Lights Electric Power [W] !RunPeriod [Value,Min,Month,Day,Hour,Minute,Max,Month,Day,Hour,Minute]
176,9,BLOCK1:ZONE2,Lights Total Heating Rate [W] !Monthly [Value,Min,Day,Hour,Minute,Max,Day,Hour,Minute]
177,11,BLOCK1:ZONE2,Lights Total Heating Rate [W] !RunPeriod [Value,Min,Month,Day,Hour,Minute,Max,Month,Day,Hour,Minute]
203,9,BLOCK1:ZONE2,Zone Lights Electric Power [W] !Monthly [Value,Min,Day,Hour,Minute,Max,Day,Hour,Minute]
204,11,BLOCK1:ZONE2,Zone Lights Electric Power [W] !RunPeriod [Value,Min,Month,Day,Hour,Minute,Max,Month,Day,Hour,Minute]
242,9,BLOCK1:ZONE3 EQUIPMENT GAIN 1,Other Equipment Total Heating Rate [W] !Monthly [Value,Min,Day,Hour,Minute,Max,Day,Hour,Minute]
243,11,BLOCK1:ZONE3 EQUIPMENT GAIN 1,Other Equipment Total Heating Rate [W] !RunPeriod [Value,Min,Month,Day,Hour,Minute,Max,Month,Day,Hour,Minute]
244,9,BLOCK1:ZONE3,Zone Other Equipment Total Heating Rate [W] !Monthly [Value,Min,Day,Hour,Minute,Max,Day,Hour,Minute]
245,11,BLOCK1:ZONE3,Zone Other Equipment Total Heating Rate [W] !RunPeriod [Value,Min,Month,Day,Hour,Minute,Max,Month,Day,Hour,Minute]
271,9,BLOCK1:ZONE1 EQUIPMENT GAIN 1,Other Equipment Total Heating Rate [W] !Monthly [Value,Min,Day,Hour,Minute,Max,Day,Hour,Minute]
272,11,BLOCK1:ZONE1 EQUIPMENT GAIN 1,Other Equipment Total Heating Rate [W] !RunPeriod [Value,Min,Month,Day,Hour,Minute,Max,Month,Day,Hour,Minute]
273,9,BLOCK1:ZONE1,Zone Other Equipment Total Heating Rate [W] !Monthly [Value,Min,Day,Hour,Minute,Max,Day,Hour,Minute]
274,11,BLOCK1:ZONE1,Zone Other Equipment Total Heating Rate [W] !RunPeriod [Value,Min,Month,Day,Hour,Minute,Max,Month,Day,Hour,Minute]
300,9,BLOCK1:ZONE4 EQUIPMENT GAIN 1,Other Equipment Total Heating Rate [W] !Monthly [Value,Min,Day,Hour,Minute,Max,Day,Hour,Minute]
301,11,BLOCK1:ZONE4 EQUIPMENT GAIN 1,Other Equipment Total Heating Rate [W] !RunPeriod [Value,Min,Month,Day,Hour,Minute,Max,Month,Day,Hour,Minute]
302,9,BLOCK1:ZONE4,Zone Other Equipment Total Heating Rate [W] !Monthly [Value,Min,Day,Hour,Minute,Max,Day,Hour,Minute]
303,11,BLOCK1:ZONE4,Zone Other Equipment Total Heating Rate [W] !RunPeriod [Value,Min,Month,Day,Hour,Minute,Max,Month,Day,Hour,Minute]
329,9,BLOCK1:ZONE2 EQUIPMENT GAIN 1,Other Equipment Total Heating Rate [W] !Monthly [Value,Min,Day,Hour,Minute,Max,Day,Hour,Minute]
330,11,BLOCK1:ZONE2 EQUIPMENT GAIN 1,Other Equipment Total Heating Rate [W] !RunPeriod [Value,Min,Month,Day,Hour,Minute,Max,Month,Day,Hour,Minute]
331,9,BLOCK1:ZONE2,Zone Other Equipment Total Heating Rate [W] !Monthly [Value,Min,Day,Hour,Minute,Max,Day,Hour,Minute]
332,11,BLOCK1:ZONE2,Zone Other Equipment Total Heating Rate [W] !RunPeriod [Value,Min,Month,Day,Hour,Minute,Max,Month,Day,Hour,Minute]
333,9,BLOCK1:ZONE3,Zone Windows Total Transmitted Solar Radiation Rate [W] !Monthly [Value,Min,Day,Hour,Minute,Max,Day,Hour,Minute]
334,11,BLOCK1:ZONE3,Zone Windows Total Transmitted Solar Radiation Rate [W] !RunPeriod [Value,Min,Month,Day,Hour,Minute,Max,Month,Day,Hour,Minute]
335,9,BLOCK1:ZONE3,Zone Interior Windows Total Transmitted Beam Solar Radiation Rate [W] !Monthly [Value,Min,Day,Hour,Minute,Max,Day,Hour,Minute]
336,11,BLOCK1:ZONE3,Zone Interior Windows Total Transmitted Beam Solar Radiation Rate [W] !RunPeriod [Value,Min,Month,Day,Hour,Minute,Max,Month,Day,Hour,Minute]
337,9,BLOCK1:ZONE3,Zone Interior Windows Total Transmitted Diffuse Solar Radiation Rate [W] !Monthly [Value,Min,Day,Hour,Minute,Max,Day,Hour,Minute]
338,11,BLOCK1:ZONE3,Zone Interior Windows Total Transmitted Diffuse Solar Radiation Rate [W] !RunPeriod [Value,Min,Month,Day,Hour,Minute,Max,Month,Day,Hour,Minute]
339,9,BLOCK1:ZONE1,Zone Windows Total Transmitted Solar Radiation Rate [W] !Monthly [Value,Min,Day,Hour,Minute,Max,Day,Hour,Minute]
340,11,BLOCK1:ZONE1,Zone Windows Total Transmitted Solar Radiation Rate [W] !RunPeriod [Value,Min,Month,Day,Hour,Minute,Max,Month,Day,Hour,Minute]
341,9,BLOCK1:ZONE1,Zone Interior Windows Total Transmitted Beam Solar Radiation Rate [W] !Monthly [Value,Min,Day,Hour,Minute,Max,Day,Hour,Minute]
342,11,BLOCK1:ZONE1,Zone Interior Windows Total Transmitted Beam Solar Radiation Rate [W] !RunPeriod [Value,Min,Month,Day,Hour,Minute,Max,Month,Day,Hour,Minute]
343,9,BLOCK1:ZONE1,Zone Interior Windows Total Transmitted Diffuse Solar Radiation Rate [W] !Monthly [Value,Min,Day,Hour,Minute,Max,Day,Hour,Minute]
344,11,BLOCK1:ZONE1,Zone Interior Windows Total Transmitted Diffuse Solar Radiation Rate [W] !RunPeriod [Value,Min,Month,Day,Hour,Minute,Max,Month,Day,Hour,Minute]
345,9,BLOCK1:ZONE4,Zone Windows Total Transmitted Solar Radiation Rate [W] !Monthly [Value,Min,Day,Hour,Minute,Max,Day,Hour,Minute]
346,11,BLOCK1:ZONE4,Zone Windows Total Transmitted Solar Radiation Rate [W] !RunPeriod [Value,Min,Month,Day,Hour,Minute,Max,Month,Day,Hour,Minute]
347,9,BLOCK1:ZONE4,Zone Interior Windows Total Transmitted Beam Solar Radiation Rate [W] !Monthly [Value,Min,Day,Hour,Minute,Max,Day,Hour,Minute]
348,11,BLOCK1:ZONE4,Zone Interior Windows Total Transmitted Beam Solar Radiation Rate [W] !RunPeriod [Value,Min,Month,Day,Hour,Minute,Max,Month,Day,Hour,Minute]
349,9,BLOCK1:ZONE4,Zone Interior Windows Total Transmitted Diffuse Solar Radiation Rate [W] !Monthly [Value,Min,Day,Hour,Minute,Max,Day,Hour,Minute]
350,11,BLOCK1:ZONE4,Zone Interior Windows Total Transmitted Diffuse Solar Radiation Rate [W] !RunPeriod [Value,Min,Month,Day,Hour,Minute,Max,Month,Day,Hour,Minute]
351,9,BLOCK1:ZONE2,Zone Windows Total Transmitted Solar Radiation Rate [W] !Monthly [Value,Min,Day,Hour,Minute,Max,Day,Hour,Minute]
352,11,BLOCK1:ZONE2,Zone Windows Total Transmitted Solar Radiation Rate [W] !RunPeriod [Value,Min,Month,Day,Hour,Minute,Max,Month,Day,Hour,Minute]
353,9,BLOCK1:ZONE2,Zone Interior Windows Total Transmitted Beam Solar Radiation Rate [W] !Monthly [Value,Min,Day,Hour,Minute,Max,Day,Hour,Minute]
354,11,BLOCK1:ZONE2,Zone Interior Windows Total Transmitted Beam Solar Radiation Rate [W] !RunPeriod [Value,Min,Month,Day,Hour,Minute,Max,Month,Day,Hour,Minute]
355,9,BLOCK1:ZONE2,Zone Interior Windows Total Transmitted Diffuse Solar Radiation Rate [W] !Monthly [Value,Min,Day,Hour,Minute,Max,Day,Hour,Minute]
356,11,BLOCK1:ZONE2,Zone Interior Windows Total Transmitted Diffuse Solar Radiation Rate [W] !RunPeriod [Value,Min,Month,Day,Hour,Minute,Max,Month,Day,Hour,Minute]
357,9,BLOCK1:ZONE3,Zone Mean Radiant Temperature [C] !Monthly [Value,Min,Day,Hour,Minute,Max,Day,Hour,Minute]
358,11,BLOCK1:ZONE3,Zone Mean Radiant Temperature [C] !RunPeriod [Value,Min,Month,Day,Hour,Minute,Max,Month,Day,Hour,Minute]
359,9,BLOCK1:ZONE1,Zone Mean Radiant Temperature [C] !Monthly [Value,Min,Day,Hour,Minute,Max,Day,Hour,Minute]
360,11,BLOCK1:ZONE1,Zone Mean Radiant Temperature [C] !RunPeriod [Value,Min,Month,Day,Hour,Minute,Max,Month,Day,Hour,Minute]
361,9,BLOCK1:ZONE4,Zone Mean Radiant Temperature [C] !Monthly [Value,Min,Day,Hour,Minute,Max,Day,Hour,Minute]
362,11,BLOCK1:ZONE4,Zone Mean Radiant Temperature [C] !RunPeriod [Value,Min,Month,Day,Hour,Minute,Max,Month,Day,Hour,Minute]
363,9,BLOCK1:ZONE2,Zone Mean Radiant Temperature [C] !Monthly [Value,Min,Day,Hour,Minute,Max,Day,Hour,Minute]
364,11,BLOCK1:ZONE2,Zone Mean Radiant Temperature [C] !RunPeriod [Value,Min,Month,Day,Hour,Minute,Max,Month,Day,Hour,Minute]
365,9,BLOCK1:ZONE3,Zone Mean Air Temperature [C] !Monthly [Value,Min,Day,Hour,Minute,Max,Day,Hour,Minute]
366,11,BLOCK1:ZONE3,Zone Mean Air Temperature [C] !RunPeriod [Value,Min,Month,Day,Hour,Minute,Max,Month,Day,Hour,Minute]
367,9,BLOCK1:ZONE3,Zone Operative Temperature [C] !Monthly [Value,Min,Day,Hour,Minute,Max,Day,Hour,Minute]
368,11,BLOCK1:ZONE3,Zone Operative Temperature [C] !RunPeriod [Value,Min,Month,Day,Hour,Minute,Max,Month,Day,Hour,Minute]
369,9,BLOCK1:ZONE1,Zone Mean Air Temperature [C] !Monthly [Value,Min,Day,Hour,Minute,Max,Day,Hour,Minute]
370,11,BLOCK1:ZONE1,Zone Mean Air Temperature [C] !RunPeriod [Value,Min,Month,Day,Hour,Minute,Max,Month,Day,Hour,Minute]
371,9,BLOCK1:ZONE1,Zone Operative Temperature [C] !Monthly [Value,Min,Day,Hour,Minute,Max,Day,Hour,Minute]
372,11,BLOCK1:ZONE1,Zone Operative Temperature [C] !RunPeriod [Value,Min,Month,Day,Hour,Minute,Max,Month,Day,Hour,Minute]
373,9,BLOCK1:ZONE4,Zone Mean Air Temperature [C] !Monthly [Value,Min,Day,Hour,Minute,Max,Day,Hour,Minute]
374,11,BLOCK1:ZONE4,Zone Mean Air Temperature [C] !RunPeriod [Value,Min,Month,Day,Hour,Minute,Max,Month,Day,Hour,Minute]
375,9,BLOCK1:ZONE4,Zone Operative Temperature [C] !Monthly [Value,Min,Day,Hour,Minute,Max,Day,Hour,Minute]
376,11,BLOCK1:ZONE4,Zone Operative Temperature [C] !RunPeriod [Value,Min,Month,Day,Hour,Minute,Max,Month,Day,Hour,Minute]
377,9,BLOCK1:ZONE2,Zone Mean Air Temperature [C] !Monthly [Value,Min,Day,Hour,Minute,Max,Day,Hour,Minute]
378,11,BLOCK1:ZONE2,Zone Mean Air Temperature [C] !RunPeriod [Value,Min,Month,Day,Hour,Minute,Max,Month,Day,Hour,Minute]
379,9,BLOCK1:ZONE2,Zone Operative Temperature [C] !Monthly [Value,Min,Day,Hour,Minute,Max,Day,Hour,Minute]
380,11,BLOCK1:ZONE2,Zone Operative Temperature [C] !RunPeriod [Value,Min,Month,Day,Hour,Minute,Max,Month,Day,Hour,Minute]
381,9,BLOCK1:ZONE3,Zone Infiltration Sensible Heat Loss Energy [J] !Monthly [Value,Min,Day,Hour,Minute,Max,Day,Hour,Minute]
382,11,BLOCK1:ZONE3,Zone Infiltration Sensible Heat Loss Energy [J] !RunPeriod [Value,Min,Month,Day,Hour,Minute,Max,Month,Day,Hour,Minute]
383,9,BLOCK1:ZONE3,Zone Infiltration Sensible Heat Gain Energy [J] !Monthly [Value,Min,Day,Hour,Minute,Max,Day,Hour,Minute]
384,11,BLOCK1:ZONE3,Zone Infiltration Sensible Heat Gain Energy [J] !RunPeriod [Value,Min,Month,Day,Hour,Minute,Max,Month,Day,Hour,Minute]
385,9,BLOCK1:ZONE3,Zone Infiltration Air Change Rate [ach] !Monthly [Value,Min,Day,Hour,Minute,Max,Day,Hour,Minute]
386,11,BLOCK1:ZONE3,Zone Infiltration Air Change Rate [ach] !RunPeriod [Value,Min,Month,Day,Hour,Minute,Max,Month,Day,Hour,Minute]
387,9,BLOCK1:ZONE1,Zone Infiltration Sensible Heat Loss Energy [J] !Monthly [Value,Min,Day,Hour,Minute,Max,Day,Hour,Minute]
388,11,BLOCK1:ZONE1,Zone Infiltration Sensible Heat Loss Energy [J] !RunPeriod [Value,Min,Month,Day,Hour,Minute,Max,Month,Day,Hour,Minute]
389,9,BLOCK1:ZONE1,Zone Infiltration Sensible Heat Gain Energy [J] !Monthly [Value,Min,Day,Hour,Minute,Max,Day,Hour,Minute]
390,11,BLOCK1:ZONE1,Zone Infiltration Sensible Heat Gain Energy [J] !RunPeriod [Value,Min,Month,Day,Hour,Minute,Max,Month,Day,Hour,Minute]
391,9,BLOCK1:ZONE1,Zone Infiltration Air Change Rate [ach] !Monthly [Value,Min,Day,Hour,Minute,Max,Day,Hour,Minute]
392,11,BLOCK1:ZONE1,Zone Infiltration Air Change Rate [ach] !RunPeriod [Value,Min,Month,Day,Hour,Minute,Max,Month,Day,Hour,Minute]
393,9,BLOCK1:ZONE4,Zone Infiltration Sensible Heat Loss Energy [J] !Monthly [Value,Min,Day,Hour,Minute,Max,Day,Hour,Minute]
394,11,BLOCK1:ZONE4,Zone Infiltration Sensible Heat Loss Energy [J] !RunPeriod [Value,Min,Month,Day,Hour,Minute,Max,Month,Day,Hour,Minute]
395,9,BLOCK1:ZONE4,Zone Infiltration Sensible Heat Gain Energy [J] !Monthly [Value,Min,Day,Hour,Minute,Max,Day,Hour,Minute]
396,11,BLOCK1:ZONE4,Zone Infiltration Sensible Heat Gain Energy [J] !RunPeriod [Value,Min,Month,Day,Hour,Minute,Max,Month,Day,Hour,Minute]
397,9,BLOCK1:ZONE4,Zone Infiltration Air Change Rate [ach] !Monthly [Value,Min,Day,Hour,Minute,Max,Day,Hour,Minute]
398,11,BLOCK1:ZONE4,Zone Infiltration Air Change Rate [ach] !RunPeriod [Value,Min,Month,Day,Hour,Minute,Max,Month,Day,Hour,Minute]
399,9,BLOCK1:ZONE2,Zone Infiltration Sensible Heat Loss Energy [J] !Monthly [Value,Min,Day,Hour,Minute,Max,Day,Hour,Minute]
400,11,BLOCK1:ZONE2,Zone Infiltration Sensible Heat Loss Energy [J] !RunPeriod [Value,Min,Month,Day,Hour,Minute,Max,Month,Day,Hour,Minute]
401,9,BLOCK1:ZONE2,Zone Infiltration Sensible Heat Gain Energy [J] !Monthly [Value,Min,Day,Hour,Minute,Max,Day,Hour,Minute]
402,11,BLOCK1:ZONE2,Zone Infiltration Sensible Heat Gain Energy [J] !RunPeriod [Value,Min,Month,Day,Hour,Minute,Max,Month,Day,Hour,Minute]
403,9,BLOCK1:ZONE2,Zone Infiltration Air Change Rate [ach] !Monthly [Value,Min,Day,Hour,Minute,Max,Day,Hour,Minute]
404,11,BLOCK1:ZONE2,Zone Infiltration Air Change Rate [ach] !RunPeriod [Value,Min,Month,Day,Hour,Minute,Max,Month,Day,Hour,Minute]
405,9,BLOCK1:ZONE3,Zone Ventilation Sensible Heat Loss Energy [J] !Monthly [Value,Min,Day,Hour,Minute,Max,Day,Hour,Minute]
406,11,BLOCK1:ZONE3,Zone Ventilation Sensible Heat Loss Energy [J] !RunPeriod [Value,Min,Month,Day,Hour,Minute,Max,Month,Day,Hour,Minute]
407,9,BLOCK1:ZONE3,Zone Ventilation Sensible Heat Gain Energy [J] !Monthly [Value,Min,Day,Hour,Minute,Max,Day,Hour,Minute]
408,11,BLOCK1:ZONE3,Zone Ventilation Sensible Heat Gain Energy [J] !RunPeriod [Value,Min,Month,Day,Hour,Minute,Max,Month,Day,Hour,Minute]
409,9,BLOCK1:ZONE3,Zone Ventilation Air Change Rate [ach] !Monthly [Value,Min,Day,Hour,Minute,Max,Day,Hour,Minute]
410,11,BLOCK1:ZONE3,Zone Ventilation Air Change Rate [ach] !RunPeriod [Value,Min,Month,Day,Hour,Minute,Max,Month,Day,Hour,Minute]
411,9,BLOCK1:ZONE3,Zone Ventilation Fan Electric Energy [J] !Monthly [Value,Min,Day,Hour,Minute,Max,Day,Hour,Minute]
448,11,BLOCK1:ZONE3,Zone Ventilation Fan Electric Energy [J] !RunPeriod [Value,Min,Month,Day,Hour,Minute,Max,Month,Day,Hour,Minute]
449,9,BLOCK1:ZONE1,Zone Ventilation Sensible Heat Loss Energy [J] !Monthly [Value,Min,Day,Hour,Minute,Max,Day,Hour,Minute]
450,11,BLOCK1:ZONE1,Zone Ventilation Sensible Heat Loss Energy [J] !RunPeriod [Value,Min,Month,Day,Hour,Minute,Max,Month,Day,Hour,Minute]
451,9,BLOCK1:ZONE1,Zone Ventilation Sensible Heat Gain Energy [J] !Monthly [Value,Min,Day,Hour,Minute,Max,Day,Hour,Minute]
452,11,BLOCK1:ZONE1,Zone Ventilation Sensible Heat Gain Energy [J] !RunPeriod [Value,Min,Month,Day,Hour,Minute,Max,Month,Day,Hour,Minute]
453,9,BLOCK1:ZONE1,Zone Ventilation Air Change Rate [ach] !Monthly [Value,Min,Day,Hour,Minute,Max,Day,Hour,Minute]
454,11,BLOCK1:ZONE1,Zone Ventilation Air Change Rate [ach] !RunPeriod [Value,Min,Month,Day,Hour,Minute,Max,Month,Day,Hour,Minute]
455,9,BLOCK1:ZONE1,Zone Ventilation Fan Electric Energy [J] !Monthly [Value,Min,Day,Hour,Minute,Max,Day,Hour,Minute]
468,11,BLOCK1:ZONE1,Zone Ventilation Fan Electric Energy [J] !RunPeriod [Value,Min,Month,Day,Hour,Minute,Max,Month,Day,Hour,Minute]
469,9,BLOCK1:ZONE4,Zone Ventilation Sensible Heat Loss Energy [J] !Monthly [Value,Min,Day,Hour,Minute,Max,Day,Hour,Minute]
470,11,BLOCK1:ZONE4,Zone Ventilation Sensible Heat Loss Energy [J] !RunPeriod [Value,Min,Month,Day,Hour,Minute,Max,Month,Day,Hour,Minute]
471,9,BLOCK1:ZONE4,Zone Ventilation Sensible Heat Gain Energy [J] !Monthly [Value,Min,Day,Hour,Minute,Max,Day,Hour,Minute]
472,11,BLOCK1:ZONE4,Zone Ventilation Sensible Heat Gain Energy [J] !RunPeriod [Value,Min,Month,Day,Hour,Minute,Max,Month,Day,Hour,Minute]
473,9,BLOCK1:ZONE4,Zone Ventilation Air Change Rate [ach] !Monthly [Value,Min,Day,Hour,Minute,Max,Day,Hour,Minute]
474,11,BLOCK1:ZONE4,Zone Ventilation Air Change Rate [ach] !RunPeriod [Value,Min,Month,Day,Hour,Minute,Max,Month,Day,Hour,Minute]
475,9,BLOCK1:ZONE4,Zone Ventilation Fan Electric Energy [J] !Monthly [Value,Min,Day,Hour,Minute,Max,Day,Hour,Minute]
488,11,BLOCK1:ZONE4,Zone Ventilation Fan Electric Energy [J] !RunPeriod [Value,Min,Month,Day,Hour,Minute,Max,Month,Day,Hour,Minute]
489,9,BLOCK1:ZONE2,Zone Ventilation Sensible Heat Loss Energy [J] !Monthly [Value,Min,Day,Hour,Minute,Max,Day,Hour,Minute]
490,11,BLOCK1:ZONE2,Zone Ventilation Sensible Heat Loss Energy [J] !RunPeriod [Value,Min,Month,Day,Hour,Minute,Max,Month,Day,Hour,Minute]
491,9,BLOCK1:ZONE2,Zone Ventilation Sensible Heat Gain Energy [J] !Monthly [Value,Min,Day,Hour,Minute,Max,Day,Hour,Minute]
492,11,BLOCK1:ZONE2,Zone Ventilation Sensible Heat Gain Energy [J] !RunPeriod [Value,Min,Month,Day,Hour,Minute,Max,Month,Day,Hour,Minute]
493,9,BLOCK1:ZONE2,Zone Ventilation Air Change Rate [ach] !Monthly [Value,Min,Day,Hour,Minute,Max,Day,Hour,Minute]
494,11,BLOCK1:ZONE2,Zone Ventilation Air Change Rate [ach] !RunPeriod [Value,Min,Month,Day,Hour,Minute,Max,Month,Day,Hour,Minute]
495,9,BLOCK1:ZONE2,Zone Ventilation Fan Electric Energy [J] !Monthly [Value,Min,Day,Hour,Minute,Max,Day,Hour,Minute]
508,11,BLOCK1:ZONE2,Zone Ventilation Fan Electric Energy [J] !RunPeriod [Value,Min,Month,Day,Hour,Minute,Max,Month,Day,Hour,Minute]
595,9,BLOCK1:ZONE3,Zone Air System Sensible Heating Rate [W] !Monthly [Value,Min,Day,Hour,Minute,Max,Day,Hour,Minute]
596,11,BLOCK1:ZONE3,Zone Air System Sensible Heating Rate [W] !RunPeriod [Value,Min,Month,Day,Hour,Minute,Max,Month,Day,Hour,Minute]
597,9,BLOCK1:ZONE3,Zone Air System Sensible Cooling Rate [W] !Monthly [Value,Min,Day,Hour,Minute,Max,Day,Hour,Minute]
598,11,BLOCK1:ZONE3,Zone Air System Sensible Cooling Rate [W] !RunPeriod [Value,Min,Month,Day,Hour,Minute,Max,Month,Day,Hour,Minute]
599,9,BLOCK1:ZONE3,Zone Air Relative Humidity [%] !Monthly [Value,Min,Day,Hour,Minute,Max,Day,Hour,Minute]
600,11,BLOCK1:ZONE3,Zone Air Relative Humidity [%] !RunPeriod [Value,Min,Month,Day,Hour,Minute,Max,Month,Day,Hour,Minute]
639,9,BLOCK1:ZONE1,Zone Air System Sensible Heating Rate [W] !Monthly [Value,Min,Day,Hour,Minute,Max,Day,Hour,Minute]
640,11,BLOCK1:ZONE1,Zone Air System Sensible Heating Rate [W] !RunPeriod [Value,Min,Month,Day,Hour,Minute,Max,Month,Day,Hour,Minute]
641,9,BLOCK1:ZONE1,Zone Air System Sensible Cooling Rate [W] !Monthly [Value,Min,Day,Hour,Minute,Max,Day,Hour,Minute]
642,11,BLOCK1:ZONE1,Zone Air System Sensible Cooling Rate [W] !RunPeriod [Value,Min,Month,Day,Hour,Minute,Max,Month,Day,Hour,Minute]
643,9,BLOCK1:ZONE1,Zone Air Relative Humidity [%] !Monthly [Value,Min,Day,Hour,Minute,Max,Day,Hour,Minute]
644,11,BLOCK1:ZONE1,Zone Air Relative Humidity [%] !RunPeriod [Value,Min,Month,Day,Hour,Minute,Max,Month,Day,Hour,Minute]
683,9,BLOCK1:ZONE4,Zone Air System Sensible Heating Rate [W] !Monthly [Value,Min,Day,Hour,Minute,Max,Day,Hour,Minute]
684,11,BLOCK1:ZONE4,Zone Air System Sensible Heating Rate [W] !RunPeriod [Value,Min,Month,Day,Hour,Minute,Max,Month,Day,Hour,Minute]
685,9,BLOCK1:ZONE4,Zone Air System Sensible Cooling Rate [W] !Monthly [Value,Min,Day,Hour,Minute,Max,Day,Hour,Minute]
686,11,BLOCK1:ZONE4,Zone Air System Sensible Cooling Rate [W] !RunPeriod [Value,Min,Month,Day,Hour,Minute,Max,Month,Day,Hour,Minute]
687,9,BLOCK1:ZONE4,Zone Air Relative Humidity [%] !Monthly [Value,Min,Day,Hour,Minute,Max,Day,Hour,Minute]
688,11,BLOCK1:ZONE4,Zone Air Relative Humidity [%] !RunPeriod [Value,Min,Month,Day,Hour,Minute,Max,Month,Day,Hour,Minute]
727,9,BLOCK1:ZONE2,Zone Air System Sensible Heating Rate [W] !Monthly [Value,Min,Day,Hour,Minute,Max,Day,Hour,Minute]
728,11,BLOCK1:ZONE2,Zone Air System Sensible Heating Rate [W] !RunPeriod [Value,Min,Month,Day,Hour,Minute,Max,Month,Day,Hour,Minute]
729,9,BLOCK1:ZONE2,Zone Air System Sensible Cooling Rate [W] !Monthly [Value,Min,Day,Hour,Minute,Max,Day,Hour,Minute]
730,11,BLOCK1:ZONE2,Zone Air System Sensible Cooling Rate [W] !RunPeriod [Value,Min,Month,Day,Hour,Minute,Max,Month,Day,Hour,Minute]
731,9,BLOCK1:ZONE2,Zone Air Relative Humidity [%] !Monthly [Value,Min,Day,Hour,Minute,Max,Day,Hour,Minute]
732,11,BLOCK1:ZONE2,Zone Air Relative Humidity [%] !RunPeriod [Value,Min,Month,Day,Hour,Minute,Max,Month,Day,Hour,Minute]
831,9,DHW BLOCK1:ZONE1,Water Use Equipment Heating Rate [W] !Monthly [Value,Min,Day,Hour,Minute,Max,Day,Hour,Minute]
832,11,DHW BLOCK1:ZONE1,Water Use Equipment Heating Rate [W] !RunPeriod [Value,Min,Month,Day,Hour,Minute,Max,Month,Day,Hour,Minute]
993,9,Whole Building,Facility Total Produced Electric Energy [J] !Monthly [Value,Min,Day,Hour,Minute,Max,Day,Hour,Minute]
994,11,Whole Building,Facility Total Produced Electric Energy [J] !RunPeriod [Value,Min,Month,Day,Hour,Minute,Max,Month,Day,Hour,Minute]
1057,9,BLOCK1:ZONE3 IDEAL LOADS AIR,Zone Ideal Loads Supply Air Total Heating Rate [W] !Monthly [Value,Min,Day,Hour,Minute,Max,Day,Hour,Minute]
1058,11,BLOCK1:ZONE3 IDEAL LOADS AIR,Zone Ideal Loads Supply Air Total Heating Rate [W] !RunPeriod [Value,Min,Month,Day,Hour,Minute,Max,Month,Day,Hour,Minute]
1059,9,BLOCK1:ZONE3 IDEAL LOADS AIR,Zone Ideal Loads Supply Air Sensible Cooling Rate [W] !Monthly [Value,Min,Day,Hour,Minute,Max,Day,Hour,Minute]
1060,11,BLOCK1:ZONE3 IDEAL LOADS AIR,Zone Ideal Loads Supply Air Sensible Cooling Rate [W] !RunPeriod [Value,Min,Month,Day,Hour,Minute,Max,Month,Day,Hour,Minute]
1061,9,BLOCK1:ZONE3 IDEAL LOADS AIR,Zone Ideal Loads Supply Air Total Cooling Rate [W] !Monthly [Value,Min,Day,Hour,Minute,Max,Day,Hour,Minute]
1062,11,BLOCK1:ZONE3 IDEAL LOADS AIR,Zone Ideal Loads Supply Air Total Cooling Rate [W] !RunPeriod [Value,Min,Month,Day,Hour,Minute,Max,Month,Day,Hour,Minute]
1063,9,BLOCK1:ZONE3 IDEAL LOADS AIR,Zone Ideal Loads Heat Recovery Sensible Heating Rate [W] !Monthly [Value,Min,Day,Hour,Minute,Max,Day,Hour,Minute]
1064,11,BLOCK1:ZONE3 IDEAL LOADS AIR,Zone Ideal Loads Heat Recovery Sensible Heating Rate [W] !RunPeriod [Value,Min,Month,Day,Hour,Minute,Max,Month,Day,Hour,Minute]
1065,9,BLOCK1:ZONE3 IDEAL LOADS AIR,Zone Ideal Loads Heat Recovery Total Heating Rate [W] !Monthly [Value,Min,Day,Hour,Minute,Max,Day,Hour,Minute]
1066,11,BLOCK1:ZONE3 IDEAL LOADS AIR,Zone Ideal Loads Heat Recovery Total Heating Rate [W] !RunPeriod [Value,Min,Month,Day,Hour,Minute,Max,Month,Day,Hour,Minute]
1067,9,BLOCK1:ZONE3 IDEAL LOADS AIR,Zone Ideal Loads Heat Recovery Sensible Cooling Rate [W] !Monthly [Value,Min,Day,Hour,Minute,Max,Day,Hour,Minute]
1068,11,BLOCK1:ZONE3 IDEAL LOADS AIR,Zone Ideal Loads Heat Recovery Sensible Cooling Rate [W] !RunPeriod [Value,Min,Month,Day,Hour,Minute,Max,Month,Day,Hour,Minute]
1069,9,BLOCK1:ZONE3 IDEAL LOADS AIR,Zone Ideal Loads Heat Recovery Total Cooling Rate [W] !Monthly [Value,Min,Day,Hour,Minute,Max,Day,Hour,Minute]
1070,11,BLOCK1:ZONE3 IDEAL LOADS AIR,Zone Ideal Loads Heat Recovery Total Cooling Rate [W] !RunPeriod [Value,Min,Month,Day,Hour,Minute,Max,Month,Day,Hour,Minute]
1073,9,BLOCK1:ZONE1 IDEAL LOADS AIR,Zone Ideal Loads Supply Air Total Heating Rate [W] !Monthly [Value,Min,Day,Hour,Minute,Max,Day,Hour,Minute]
1074,11,BLOCK1:ZONE1 IDEAL LOADS AIR,Zone Ideal Loads Supply Air Total Heating Rate [W] !RunPeriod [Value,Min,Month,Day,Hour,Minute,Max,Month,Day,Hour,Minute]
1075,9,BLOCK1:ZONE1 IDEAL LOADS AIR,Zone Ideal Loads Supply Air Sensible Cooling Rate [W] !Monthly [Value,Min,Day,Hour,Minute,Max,Day,Hour,Minute]
1076,11,BLOCK1:ZONE1 IDEAL LOADS AIR,Zone Ideal Loads Supply Air Sensible Cooling Rate [W] !RunPeriod [Value,Min,Month,Day,Hour,Minute,Max,Month,Day,Hour,Minute]
1077,9,BLOCK1:ZONE1 IDEAL LOADS AIR,Zone Ideal Loads Supply Air Total Cooling Rate [W] !Monthly [Value,Min,Day,Hour,Minute,Max,Day,Hour,Minute]
1078,11,BLOCK1:ZONE1 IDEAL LOADS AIR,Zone Ideal Loads Supply Air Total Cooling Rate [W] !RunPeriod [Value,Min,Month,Day,Hour,Minute,Max,Month,Day,Hour,Minute]
1079,9,BLOCK1:ZONE1 IDEAL LOADS AIR,Zone Ideal Loads Heat Recovery Sensible Heating Rate [W] !Monthly [Value,Min,Day,Hour,Minute,Max,Day,Hour,Minute]
1080,11,BLOCK1:ZONE1 IDEAL LOADS AIR,Zone Ideal Loads Heat Recovery Sensible Heating Rate [W] !RunPeriod [Value,Min,Month,Day,Hour,Minute,Max,Month,Day,Hour,Minute]
1081,9,BLOCK1:ZONE1 IDEAL LOADS AIR,Zone Ideal Loads Heat Recovery Total Heating Rate [W] !Monthly [Value,Min,Day,Hour,Minute,Max,Day,Hour,Minute]
1082,11,BLOCK1:ZONE1 IDEAL LOADS AIR,Zone Ideal Loads Heat Recovery Total Heating Rate [W] !RunPeriod [Value,Min,Month,Day,Hour,Minute,Max,Month,Day,Hour,Minute]
1083,9,BLOCK1:ZONE1 IDEAL LOADS AIR,Zone Ideal Loads Heat Recovery Sensible Cooling Rate [W] !Monthly [Value,Min,Day,Hour,Minute,Max,Day,Hour,Minute]
1084,11,BLOCK1:ZONE1 IDEAL LOADS AIR,Zone Ideal Loads Heat Recovery Sensible Cooling Rate [W] !RunPeriod [Value,Min,Month,Day,Hour,Minute,Max,Month,Day,Hour,Minute]
1085,9,BLOCK1:ZONE1 IDEAL LOADS AIR,Zone Ideal Loads Heat Recovery Total Cooling Rate [W] !Monthly [Value,Min,Day,Hour,Minute,Max,Day,Hour,Minute]
1086,11,BLOCK1:ZONE1 IDEAL LOADS AIR,Zone Ideal Loads Heat Recovery Total Cooling Rate [W] !RunPeriod [Value,Min,Month,Day,Hour,Minute,Max,Month,Day,Hour,Minute]