Program Version,EnergyPlus, Version 9.0.1-bb7ca4f0da, YMD=2021.02.21 23:23
1,5,Environment Title[],Latitude[deg],Longitude[deg],Time Zone[],Elevation[m]
2,8,Day of Simulation[],Month[],Day of Month[],DST Indicator[1=yes 0=no],Hour[],StartMinute[],EndMinute[],DayType
3,5,Cumulative Day of Simulation[],Month[],Day of Month[],DST Indicator[1=yes 0=no],DayType  ! When Daily Report Variables Requested
4,2,Cumulative Days of Simulation[],Month[]  ! When Monthly Report Variables Requested
5,1,Cumulative Days of Simulation[] ! When Run Period Report Variables Requested
6,1,Calendar Year of Simulation[] ! When Annual Report Variables Requested
7,9,Environment,Site Outdoor Air Drybulb Temperature [C] !Monthly [Value,Min,Day,Hour,Minute,Max,Day,Hour,Minute]
8,11,Environment,Site Outdoor Air Drybulb Temperature [C] !RunPeriod [Value,Min,Month,Day,Hour,Minute,Max,Month,Day,Hour,Minute]
9,9,Environment,Site Outdoor Air Dewpoint Temperature [C] !Monthly [Value,Min,Day,Hour,Minute,Max,Day,Hour,Minute]
10,11,Environment,Site Outdoor Air Dewpoint Temperature [C] !RunPeriod [Value,Min,Month,Day,Hour,Minute,Max,Month,Day,Hour,Minute]
11,9,Environment,Site Outdoor Air Barometric Pressure [Pa] !Monthly [Value,Min,Day,Hour,Minute,Max,Day,Hour,Minute]
12,11,Environment,Site Outdoor Air Barometric Pressure [Pa] !RunPeriod [Value,Min,Month,Day,Hour,Minute,Max,Month,Day,Hour,Minute]
13,9,Environment,Site Wind Speed [m/s] !Monthly [Value,Min,Day,Hour,Minute,Max,Day,Hour,Minute]
14,11,Environment,Site Wind Speed [m/s] !RunPeriod [Value,Min,Month,Day,Hour,Minute,Max,Month,Day,Hour,Minute]
15,9,Environment,Site Wind Direction [deg] !Monthly [Value,Min,Day,Hour,Minute,Max,Day,Hour,Minute]
16,11,Environment,Site Wind Direction [deg] !RunPeriod [Value,Min,Month,Day,Hour,Minute,Max,Month,Day,Hour,Minute]
17,9,Environment,Site Diffuse Solar Radiation Rate per Area [W/m2] !Monthly [Value,Min,Day,Hour,Minute,Max,Day,Hour,Minute]
18,11,Environment,Site Diffuse Solar Radiation Rate per Area [W/m2] !RunPeriod [Value,Min,Month,Day,Hour,Minute,Max,Month,Day,Hour,Minute]
19,9,Environment,Site Direct Solar Radiation Rate per Area [W/m2] !Monthly [Value,Min,Day,Hour,Minute,Max,Day,Hour,Minute]
20,11,Environment,Site Direct Solar Radiation Rate per Area [W/m2] !RunPeriod [Value,Min,Month,Day,Hour,Minute,Max,Month,Day,Hour,Minute]
21,9,Environment,Site Solar Azimuth Angle [deg] !Monthly [Value,Min,Day,Hour,Minute,Max,Day,Hour,Minute]
22,11,Environment,Site Solar Azimuth Angle [deg] !RunPeriod [Value,Min,Month,Day,Hour,Minute,Max,Month,Day,Hour,Minute]
23,9,Environment,Site Solar Altitude Angle [deg] !Monthly [Value,Min,Day,Hour,Minute,Max,Day,Hour,Minute]
24,11,Environment,Site Solar Altitude Angle [deg] !RunPeriod [Value,Min,Month,Day,Hour,Minute,Max,Month,Day,Hour,Minute]
25,9,BLOCK1:ZONE3,Zone Total Internal Latent Gain Energy [J] !Monthly [Value,Min,Day,Hour,Minute,Max,Day,Hour,Minute]
26,11,BLOCK1:ZONE3,Zone Total Internal Latent Gain Energy [J] !RunPeriod [Value,Min,Month,Day,Hour,Minute,Max,Month,Day,Hour,Minute]
27,9,BLOCK1:ZONE1,Zone Total Internal Latent Gain Energy [J] !Monthly [Value,Min,Day,Hour,Minute,Max,Day,Hour,Minute]
28,11,BLOCK1:ZONE1,Zone Total Internal Latent Gain Energy [J] !RunPeriod [Value,Min,Month,Day,Hour,Minute,Max,Month,Day,Hour,Minute]
29,9,BLOCK1:ZONE4,Zone Total Internal Latent Gain Energy [J] !Monthly [Value,Min,Day,Hour,Minute,Max,Day,Hour,Minute]
30,11,BLOCK1:ZONE4,Zone Total Internal Latent Gain Energy [J] !RunPeriod [Value,Min,Month,Day,Hour,Minute,Max,Month,Day,Hour,Minute]
31,9,BLOCK1:ZONE2,Zone Total Internal Latent Gain Energy [J] !Monthly [Value,Min,Day,Hour,Minute,Max,Day,Hour,Minute]
32,11,BLOCK1:ZONE2,Zone Total Internal Latent Gain Energy [J] !RunPeriod [Value,Min,Month,Day,Hour,Minute,Max,Month,Day,Hour,Minute]
33,9,BLOCK1:ZONE3,Zone People Sensible Heating Rate [W] !Monthly [Value,Min,Day,Hour,Minute,Max,Day,Hour,Minute]
34,11,BLOCK1:ZONE3,Zone People Sensible Heating Rate [W] !RunPeriod [Value,Min,Month,Day,Hour,Minute,Max,Month,Day,Hour,Minute]
35,9,BLOCK1:ZONE1,Zone People Sensible Heating Rate [W] !Monthly [Value,Min,Day,Hour,Minute,Max,Day,Hour,Minute]
36,11,BLOCK1:ZONE1,Zone People Sensible Heating Rate [W] !RunPeriod [Value,Min,Month,Day,Hour,Minute,Max,Month,Day,Hour,Minute]
37,9,BLOCK1:ZONE4,Zone People Sensible Heating Rate [W] !Monthly [Value,Min,Day,Hour,Minute,Max,Day,Hour,Minute]
38,11,BLOCK1:ZONE4,Zone People Sensible Heating Rate [W] !RunPeriod [Value,Min,Month,Day,Hour,Minute,Max,Month,Day,Hour,Minute]
39,9,BLOCK1:ZONE2,Zone People Sensible Heating Rate [W] !Monthly [Value,Min,Day,Hour,Minute,Max,Day,Hour,Minute]
40,11,BLOCK1:ZONE2,Zone People Sensible Heating Rate [W] !RunPeriod [Value,Min,Month,Day,Hour,Minute,Max,Month,Day,Hour,Minute]
41,9,BLOCK1:ZONE3,Lights Total Heating Rate [W] !Monthly [Value,Min,Day,Hour,Minute,Max,Day,Hour,Minute]
42,11,BLOCK1:ZONE3,Lights Total Heating Rate [W] !RunPeriod [Value,Min,Month,Day,Hour,Minute,Max,Month,Day,Hour,Minute]
116,9,BLOCK1:ZONE1,Lights Total Heating Rate [W] !Monthly [Value,Min,Day,Hour,Minute,Max,Day,Hour,Minute]
117,11,BLOCK1:ZONE1,Lights Total Heating Rate [W] !RunPeriod [Value,Min,Month,Day,Hour,Minute,Max,Month,Day,Hour,Minute]
143,9,BLOCK1:ZONE4,Lights Total Heating Rate [W] !Monthly [Value,Min,Day,Hour,Minute,Max,Day,Hour,Minute]
144,11,BLOCK1:ZONE4,Lights Total Heating Rate [W] !RunPeriod [Value,Min,Month,Day,Hour,Minute,Max,Month,Day,Hour,Minute]
170,9,BLOCK1:ZONE2,Lights Total Heating Rate [W] !Monthly [Value,Min,Day,Hour,Minute,Max,Day,Hour,Minute]
171,11,BLOCK1:ZONE2,Lights Total Heating Rate [W] !RunPeriod [Value,Min,Month,Day,Hour,Minute,Max,Month,Day,Hour,Minute]
234,9,BLOCK1:ZONE3,Zone Other Equipment Total Heating Energy [J] !Monthly [Value,Min,Day,Hour,Minute,Max,Day,Hour,Minute]
235,11,BLOCK1:ZONE3,Zone Other Equipment Total Heating Energy [J] !RunPeriod [Value,Min,Month,Day,Hour,Minute,Max,Month,Day,Hour,Minute]
236,9,BLOCK1:ZONE3,Zone Other Equipment Total Heating Rate [W] !Monthly [Value,Min,Day,Hour,Minute,Max,Day,Hour,Minute]
237,11,BLOCK1:ZONE3,Zone Other Equipment Total Heating Rate [W] !RunPeriod [Value,Min,Month,Day,Hour,Minute,Max,Month,Day,Hour,Minute]
263,9,BLOCK1:ZONE1,Zone Other Equipment Total Heating Energy [J] !Monthly [Value,Min,Day,Hour,Minute,Max,Day,Hour,Minute]
264,11,BLOCK1:ZONE1,Zone Other Equipment Total Heating Energy [J] !RunPeriod [Value,Min,Month,Day,Hour,Minute,Max,Month,Day,Hour,Minute]
265,9,BLOCK1:ZONE1,Zone Other Equipment Total Heating Rate [W] !Monthly [Value,Min,Day,Hour,Minute,Max,Day,Hour,Minute]
266,11,BLOCK1:ZONE1,Zone Other Equipment Total Heating Rate [W] !RunPeriod [Value,Min,Month,Day,Hour,Minute,Max,Month,Day,Hour,Minute]
292,9,BLOCK1:ZONE4,Zone Other Equipment Total Heating Energy [J] !Monthly [Value,Min,Day,Hour,Minute,Max,Day,Hour,Minute]
293,11,BLOCK1:ZONE4,Zone Other Equipment Total Heating Energy [J] !RunPeriod [Value,Min,Month,Day,Hour,Minute,Max,Month,Day,Hour,Minute]
294,9,BLOCK1:ZONE4,Zone Other Equipment Total Heating Rate [W] !Monthly [Value,Min,Day,Hour,Minute,Max,Day,Hour,Minute]
295,11,BLOCK1:ZONE4,Zone Other Equipment Total Heating Rate [W] !RunPeriod [Value,Min,Month,Day,Hour,Minute,Max,Month,Day,Hour,Minute]
321,9,BLOCK1:ZONE2,Zone Other Equipment Total Heating Energy [J] !Monthly [Value,Min,Day,Hour,Minute,Max,Day,Hour,Minute]
322,11,BLOCK1:ZONE2,Zone Other Equipment Total Heating Energy [J] !RunPeriod [Value,Min,Month,Day,Hour,Minute,Max,Month,Day,Hour,Minute]
323,9,BLOCK1:ZONE2,Zone Other Equipment Total Heating Rate [W] !Monthly [Value,Min,Day,Hour,Minute,Max,Day,Hour,Minute]
324,11,BLOCK1:ZONE2,Zone Other Equipment Total Heating Rate [W] !RunPeriod [Value,Min,Month,Day,Hour,Minute,Max,Month,Day,Hour,Minute]
325,9,BLOCK1:ZONE3,Zone Windows Total Transmitted Solar Radiation Rate [W] !Monthly [Value,Min,Day,Hour,Minute,Max,Day,Hour,Minute]
326,11,BLOCK1:ZONE3,Zone Windows Total Transmitted Solar Radiation Rate [W] !RunPeriod [Value,Min,Month,Day,Hour,Minute,Max,Month,Day,Hour,Minute]
327,9,BLOCK1:ZONE3,Zone Interior Windows Total Transmitted Beam Solar Radiation Rate [W] !Monthly [Value,Min,Day,Hour,Minute,Max,Day,Hour,Minute]
328,11,BLOCK1:ZONE3,Zone Interior Windows Total Transmitted Beam Solar Radiation Rate [W] !RunPeriod [Value,Min,Month,Day,Hour,Minute,Max,Month,Day,Hour,Minute]
329,9,BLOCK1:ZONE3,Zone Interior Windows Total Transmitted Diffuse Solar Radiation Rate [W] !Monthly [Value,Min,Day,Hour,Minute,Max,Day,Hour,Minute]
330,11,BLOCK1:ZONE3,Zone Interior Windows Total Transmitted Diffuse Solar Radiation Rate [W] !RunPeriod [Value,Min,Month,Day,Hour,Minute,Max,Month,Day,Hour,Minute]
331,9,BLOCK1:ZONE1,Zone Windows Total Transmitted Solar Radiation Rate [W] !Monthly [Value,Min,Day,Hour,Minute,Max,Day,Hour,Minute]
332,11,BLOCK1:ZONE1,Zone Windows Total Transmitted Solar Radiation Rate [W] !RunPeriod [Value,Min,Month,Day,Hour,Minute,Max,Month,Day,Hour,Minute]
333,9,BLOCK1:ZONE1,Zone Interior Windows Total Transmitted Beam Solar Radiation Rate [W] !Monthly [Value,Min,Day,Hour,Minute,Max,Day,Hour,Minute]
334,11,BLOCK1:ZONE1,Zone Interior Windows Total Transmitted Beam Solar Radiation Rate [W] !RunPeriod [Value,Min,Month,Day,Hour,Minute,Max,Month,Day,Hour,Minute]
335,9,BLOCK1:ZONE1,Zone Interior Windows Total Transmitted Diffuse Solar Radiation Rate [W] !Monthly [Value,Min,Day,Hour,Minute,Max,Day,Hour,Minute]
336,11,BLOCK1:ZONE1,Zone Interior Windows Total Transmitted Diffuse Solar Radiation Rate [W] !RunPeriod [Value,Min,Month,Day,Hour,Minute,Max,Month,Day,Hour,Minute]
337,9,BLOCK1:ZONE4,Zone Windows Total Transmitted Solar Radiation Rate [W] !Monthly [Value,Min,Day,Hour,Minute,Max,Day,Hour,Minute]
338,11,BLOCK1:ZONE4,Zone Windows Total Transmitted Solar Radiation Rate [W] !RunPeriod [Value,Min,Month,Day,Hour,Minute,Max,Month,Day,Hour,Minute]
339,9,BLOCK1:ZONE4,Zone Interior Windows Total Transmitted Beam Solar Radiation Rate [W] !Monthly [Value,Min,Day,Hour,Minute,Max,Day,Hour,Minute]
340,11,BLOCK1:ZONE4,Zone Interior Windows Total Transmitted Beam Solar Radiation Rate [W] !RunPeriod [Value,Min,Month,Day,Hour,Minute,Max,Month,Day,Hour,Minute]
341,9,BLOCK1:ZONE4,Zone Interior Windows Total Transmitted Diffuse Solar Radiation Rate [W] !Monthly [Value,Min,Day,Hour,Minute,Max,Day,Hour,Minute]
342,11,BLOCK1:ZONE4,Zone Interior Windows Total Transmitted Diffuse Solar Radiation Rate [W] !RunPeriod [Value,Min,Month,Day,Hour,Minute,Max,Month,Day,Hour,Minute]
343,9,BLOCK1:ZONE2,Zone Windows Total Transmitted Solar Radiation Rate [W] !Monthly [Value,Min,Day,Hour,Minute,Max,Day,Hour,Minute]
344,11,BLOCK1:ZONE2,Zone Windows Total Transmitted Solar Radiation Rate [W] !RunPeriod [Value,Min,Month,Day,Hour,Minute,Max,Month,Day,Hour,Minute]
345,9,BLOCK1:ZONE2,Zone Interior Windows Total Transmitted Beam Solar Radiation Rate [W] !Monthly [Value,Min,Day,Hour,Minute,Max,Day,Hour,Minute]
346,11,BLOCK1:ZONE2,Zone Interior Windows Total Transmitted Beam Solar Radiation Rate [W] !RunPeriod [Value,Min,Month,Day,Hour,Minute,Max,Month,Day,Hour,Minute]
347,9,BLOCK1:ZONE2,Zone Interior Windows Total Transmitted Diffuse Solar Radiation Rate [W] !Monthly [Value,Min,Day,Hour,Minute,Max,Day,Hour,Minute]
348,11,BLOCK1:ZONE2,Zone Interior Windows Total Transmitted Diffuse Solar Radiation Rate [W] !RunPeriod [Value,Min,Month,Day,Hour,Minute,Max,Month,Day,Hour,Minute]
349,9,BLOCK1:ZONE3,Zone Mean Radiant Temperature [C] !Monthly [Value,Min,Day,Hour,Minute,Max,Day,Hour,Minute]
350,11,BLOCK1:ZONE3,Zone Mean Radiant Temperature [C] !RunPeriod [Value,Min,Month,Day,Hour,Minute,Max,Month,Day,Hour,Minute]
351,9,BLOCK1:ZONE1,Zone Mean Radiant Temperature [C] !Monthly [Value,Min,Day,Hour,Minute,Max,Day,Hour,Minute]
352,11,BLOCK1:ZONE1,Zone Mean Radiant Temperature [C] !RunPeriod [Value,Min,Month,Day,Hour,Minute,Max,Month,Day,Hour,Minute]
353,9,BLOCK1:ZONE4,Zone Mean Radiant Temperature [C] !Monthly [Value,Min,Day,Hour,Minute,Max,Day,Hour,Minute]
354,11,BLOCK1:ZONE4,Zone Mean Radiant Temperature [C] !RunPeriod [Value,Min,Month,Day,Hour,Minute,Max,Month,Day,Hour,Minute]
355,9,BLOCK1:ZONE2,Zone Mean Radiant Temperature [C] !Monthly [Value,Min,Day,Hour,Minute,Max,Day,Hour,Minute]
356,11,BLOCK1:ZONE2,Zone Mean Radiant Temperature [C] !RunPeriod [Value,Min,Month,Day,Hour,Minute,Max,Month,Day,Hour,Minute]
357,9,BLOCK1:ZONE3,Zone Mean Air Temperature [C] !Monthly [Value,Min,Day,Hour,Minute,Max,Day,Hour,Minute]
358,11,BLOCK1:ZONE3,Zone Mean Air Temperature [C] !RunPeriod [Value,Min,Month,Day,Hour,Minute,Max,Month,Day,Hour,Minute]
359,9,BLOCK1:ZONE3,Zone Operative Temperature [C] !Monthly [Value,Min,Day,Hour,Minute,Max,Day,Hour,Minute]
360,11,BLOCK1:ZONE3,Zone Operative Temperature [C] !RunPeriod [Value,Min,Month,Day,Hour,Minute,Max,Month,Day,Hour,Minute]
361,9,BLOCK1:ZONE1,Zone Mean Air Temperature [C] !Monthly [Value,Min,Day,Hour,Minute,Max,Day,Hour,Minute]
362,11,BLOCK1:ZONE1,Zone Mean Air Temperature [C] !RunPeriod [Value,Min,Month,Day,Hour,Minute,Max,Month,Day,Hour,Minute]
363,9,BLOCK1:ZONE1,Zone Operative Temperature [C] !Monthly [Value,Min,Day,Hour,Minute,Max,Day,Hour,Minute]
364,11,BLOCK1:ZONE1,Zone Operative Temperature [C] !RunPeriod [Value,Min,Month,Day,Hour,Minute,Max,Month,Day,Hour,Minute]
365,9,BLOCK1:ZONE4,Zone Mean Air Temperature [C] !Monthly [Value,Min,Day,Hour,Minute,Max,Day,Hour,Minute]
366,11,BLOCK1:ZONE4,Zone Mean Air Temperature [C] !RunPeriod [Value,Min,Month,Day,Hour,Minute,Max,Month,Day,Hour,Minute]
367,9,BLOCK1:ZONE4,Zone Operative Temperature [C] !Monthly [Value,Min,Day,Hour,Minute,Max,Day,Hour,Minute]
368,11,BLOCK1:ZONE4,Zone Operative Temperature [C] !RunPeriod [Value,Min,Month,Day,Hour,Minute,Max,Month,Day,Hour,Minute]
369,9,BLOCK1:ZONE2,Zone Mean Air Temperature [C] !Monthly [Value,Min,Day,Hour,Minute,Max,Day,Hour,Minute]
370,11,BLOCK1:ZONE2,Zone Mean Air Temperature [C] !RunPeriod [Value,Min,Month,Day,Hour,Minute,Max,Month,Day,Hour,Minute]
371,9,BLOCK1:ZONE2,Zone Operative Temperature [C] !Monthly [Value,Min,Day,Hour,Minute,Max,Day,Hour,Minute]
372,11,BLOCK1:ZONE2,Zone Operative Temperature [C] !RunPeriod [Value,Min,Month,Day,Hour,Minute,Max,Month,Day,Hour,Minute]
373,9,BLOCK1:ZONE3,Zone Infiltration Sensible Heat Loss Energy [J] !Monthly [Value,Min,Day,Hour,Minute,Max,Day,Hour,Minute]
374,11,BLOCK1:ZONE3,Zone Infiltration Sensible Heat Loss Energy [J] !RunPeriod [Value,Min,Month,Day,Hour,Minute,Max,Month,Day,Hour,Minute]
375,9,BLOCK1:ZONE3,Zone Infiltration Sensible Heat Gain Energy [J] !Monthly [Value,Min,Day,Hour,Minute,Max,Day,Hour,Minute]
376,11,BLOCK1:ZONE3,Zone Infiltration Sensible Heat Gain Energy [J] !RunPeriod [Value,Min,Month,Day,Hour,Minute,Max,Month,Day,Hour,Minute]
377,9,BLOCK1:ZONE3,Zone Infiltration Air Change Rate [ach] !Monthly [Value,Min,Day,Hour,Minute,Max,Day,Hour,Minute]
378,11,BLOCK1:ZONE3,Zone Infiltration Air Change Rate [ach] !RunPeriod [Value,Min,Month,Day,Hour,Minute,Max,Month,Day,Hour,Minute]
379,9,BLOCK1:ZONE1,Zone Infiltration Sensible Heat Loss Energy [J] !Monthly [Value,Min,Day,Hour,Minute,Max,Day,Hour,Minute]
380,11,BLOCK1:ZONE1,Zone Infiltration Sensible Heat Loss Energy [J] !RunPeriod [Value,Min,Month,Day,Hour,Minute,Max,Month,Day,Hour,Minute]
381,9,BLOCK1:ZONE1,Zone Infiltration Sensible Heat Gain Energy [J] !Monthly [Value,Min,Day,Hour,Minute,Max,Day,Hour,Minute]
382,11,BLOCK1:ZONE1,Zone Infiltration Sensible Heat Gain Energy [J] !RunPeriod [Value,Min,Month,Day,Hour,Minute,Max,Month,Day,Hour,Minute]
383,9,BLOCK1:ZONE1,Zone Infiltration Air Change Rate [ach] !Monthly [Value,Min,Day,Hour,Minute,Max,Day,Hour,Minute]
384,11,BLOCK1:ZONE1,Zone Infiltration Air Change Rate [ach] !RunPeriod [Value,Min,Month,Day,Hour,Minute,Max,Month,Day,Hour,Minute]
385,9,BLOCK1:ZONE4,Zone Infiltration Sensible Heat Loss Energy [J] !Monthly [Value,Min,Day,Hour,Minute,Max,Day,Hour,Minute]
386,11,BLOCK1:ZONE4,Zone Infiltration Sensible Heat Loss Energy [J] !RunPeriod [Value,Min,Month,Day,Hour,Minute,Max,Month,Day,Hour,Minute]
387,9,BLOCK1:ZONE4,Zone Infiltration Sensible Heat Gain Energy [J] !Monthly [Value,Min,Day,Hour,Minute,Max,Day,Hour,Minute]
388,11,BLOCK1:ZONE4,Zone Infiltration Sensible Heat Gain Energy [J] !RunPeriod [Value,Min,Month,Day,Hour,Minute,Max,Month,Day,Hour,Minute]
389,9,BLOCK1:ZONE4,Zone Infiltration Air Change Rate [ach] !Monthly [Value,Min,Day,Hour,Minute,Max,Day,Hour,Minute]
390,11,BLOCK1:ZONE4,Zone Infiltration Air Change Rate [ach] !RunPeriod [Value,Min,Month,Day,Hour,Minute,Max,Month,Day,Hour,Minute]
391,9,BLOCK1:ZONE2,Zone Infiltration Sensible Heat Loss Energy [J] !Monthly [Value,Min,Day,Hour,Minute,Max,Day,Hour,Minute]
392,11,BLOCK1:ZONE2,Zone Infiltration Sensible Heat Loss Energy [J] !RunPeriod [Value,Min,Month,Day,Hour,Minute,Max,Month,Day,Hour,Minute]
393,9,BLOCK1:ZONE2,Zone Infiltration Sensible Heat Gain Energy [J] !Monthly [Value,Min,Day,Hour,Minute,Max,Day,Hour,Minute]
394,11,BLOCK1:ZONE2,Zone Infiltration Sensible Heat Gain Energy [J] !RunPeriod [Value,Min,Month,Day,Hour,Minute,Max,Month,Day,Hour,Minute]
395,9,BLOCK1:ZONE2,Zone Infiltration Air Change Rate [ach] !Monthly [Value,Min,Day,Hour,Minute,Max,Day,Hour,Minute]
396,11,BLOCK1:ZONE2,Zone Infiltration Air Change Rate [ach] !RunPeriod [Value,Min,Month,Day,Hour,Minute,Max,Month,Day,Hour,Minute]
483,9,BLOCK1:ZONE3,Zone Air System Sensible Heating Rate [W] !Monthly [Value,Min,Day,Hour,Minute,Max,Day,Hour,Minute]
484,11,BLOCK1:ZONE3,Zone Air System Sensible Heating Rate [W] !RunPeriod [Value,Min,Month,Day,Hour,Minute,Max,Month,Day,Hour,Minute]
485,9,BLOCK1:ZONE3,Zone Air System Sensible Cooling Rate [W] !Monthly [Value,Min,Day,Hour,Minute,Max,Day,Hour,Minute]
486,11,BLOCK1:ZONE3,Zone Air System Sensible Cooling Rate [W] !RunPeriod [Value,Min,Month,Day,Hour,Minute,Max,Month,Day,Hour,Minute]
487,9,BLOCK1:ZONE3,Zone Air Relative Humidity [%] !Monthly [Value,Min,Day,Hour,Minute,Max,Day,Hour,Minute]
488,11,BLOCK1:ZONE3,Zone Air Relative Humidity [%] !RunPeriod [Value,Min,Month,Day,Hour,Minute,Max,Month,Day,Hour,Minute]
527,9,BLOCK1:ZONE1,Zone Air System Sensible Heating Rate [W] !Monthly [Value,Min,Day,Hour,Minute,Max,Day,Hour,Minute]
528,11,BLOCK1:ZONE1,Zone Air System Sensible Heating Rate [W] !RunPeriod [Value,Min,Month,Day,Hour,Minute,Max,Month,Day,Hour,Minute]
529,9,BLOCK1:ZONE1,Zone Air System Sensible Cooling Rate [W] !Monthly [Value,Min,Day,Hour,Minute,Max,Day,Hour,Minute]
530,11,BLOCK1:ZONE1,Zone Air System Sensible Cooling Rate [W] !RunPeriod [Value,Min,Month,Day,Hour,Minute,Max,Month,Day,Hour,Minute]
531,9,BLOCK1:ZONE1,Zone Air Relative Humidity [%] !Monthly [Value,Min,Day,Hour,Minute,Max,Day,Hour,Minute]
532,11,BLOCK1:ZONE1,Zone Air Relative Humidity [%] !RunPeriod [Value,Min,Month,Day,Hour,Minute,Max,Month,Day,Hour,Minute]
571,9,BLOCK1:ZONE4,Zone Air System Sensible Heating Rate [W] !Monthly [Value,Min,Day,Hour,Minute,Max,Day,Hour,Minute]
572,11,BLOCK1:ZONE4,Zone Air System Sensible Heating Rate [W] !RunPeriod [Value,Min,Month,Day,Hour,Minute,Max,Month,Day,Hour,Minute]
573,9,BLOCK1:ZONE4,Zone Air System Sensible Cooling Rate [W] !Monthly [Value,Min,Day,Hour,Minute,Max,Day,Hour,Minute]
574,11,BLOCK1:ZONE4,Zone Air System Sensible Cooling Rate [W] !RunPeriod [Value,Min,Month,Day,Hour,Minute,Max,Month,Day,Hour,Minute]
575,9,BLOCK1:ZONE4,Zone Air Relative Humidity [%] !Monthly [Value,Min,Day,Hour,Minute,Max,Day,Hour,Minute]
576,11,BLOCK1:ZONE4,Zone Air Relative Humidity [%] !RunPeriod [Value,Min,Month,Day,Hour,Minute,Max,Month,Day,Hour,Minute]
615,9,BLOCK1:ZONE2,Zone Air System Sensible Heating Rate [W] !Monthly [Value,Min,Day,Hour,Minute,Max,Day,Hour,Minute]
616,11,BLOCK1:ZONE2,Zone Air System Sensible Heating Rate [W] !RunPeriod [Value,Min,Month,Day,Hour,Minute,Max,Month,Day,Hour,Minute]
617,9,BLOCK1:ZONE2,Zone Air System Sensible Cooling Rate [W] !Monthly [Value,Min,Day,Hour,Minute,Max,Day,Hour,Minute]
618,11,BLOCK1:ZONE2,Zone Air System Sensible Cooling Rate [W] !RunPeriod [Value,Min,Month,Day,Hour,Minute,Max,Month,Day,Hour,Minute]
619,9,BLOCK1:ZONE2,Zone Air Relative Humidity [%] !Monthly [Value,Min,Day,Hour,Minute,Max,Day,Hour,Minute]
620,11,BLOCK1:ZONE2,Zone Air Relative Humidity [%] !RunPeriod [Value,Min,Month,Day,Hour,Minute,Max,Month,Day,Hour,Minute]
719,9,DHW BLOCK1:ZONE1,Water Use Equipment Heating Rate [W] !Monthly [Value,Min,Day,Hour,Minute,Max,Day,Hour,Minute]
720,11,DHW BLOCK1:ZONE1,Water Use Equipment Heating Rate [W] !RunPeriod [Value,Min,Month,Day,Hour,Minute,Max,Month,Day,Hour,Minute]
881,9,Whole Building,Facility Total Produced Electric Energy [J] !Monthly [Value,Min,Day,Hour,Minute,Max,Day,Hour,Minute]
882,11,Whole Building,Facility Total Produced Electric Energy [J] !RunPeriod [Value,Min,Month,Day,Hour,Minute,Max,Month,Day,Hour,Minute]
945,9,BLOCK1:ZONE3 IDEAL LOADS AIR,Zone Ideal Loads Supply Air Total Heating Rate [W] !Monthly [Value,Min,Day,Hour,Minute,Max,Day,Hour,Minute]
946,11,BLOCK1:ZONE3 IDEAL LOADS AIR,Zone Ideal Loads Supply Air Total Heating Rate [W] !RunPeriod [Value,Min,Month,Day,Hour,Minute,Max,Month,Day,Hour,Minute]
947,9,BLOCK1:ZONE3 IDEAL LOADS AIR,Zone Ideal Loads Supply Air Sensible Cooling Rate [W] !Monthly [Value,Min,Day,Hour,Minute,Max,Day,Hour,Minute]
948,11,BLOCK1:ZONE3 IDEAL LOADS AIR,Zone Ideal Loads Supply Air Sensible Cooling Rate [W] !RunPeriod [Value,Min,Month,Day,Hour,Minute,Max,Month,Day,Hour,Minute]
949,9,BLOCK1:ZONE3 IDEAL LOADS AIR,Zone Ideal Loads Supply Air Total Cooling Rate [W] !Monthly [Value,Min,Day,Hour,Minute,Max,Day,Hour,Minute]
950,11,BLOCK1:ZONE3 IDEAL LOADS AIR,Zone Ideal Loads Supply Air Total Cooling Rate [W] !RunPeriod [Value,Min,Month,Day,Hour,Minute,Max,Month,Day,Hour,Minute]
951,9,BLOCK1:ZONE3 IDEAL LOADS AIR,Zone Ideal Loads Heat Recovery Sensible Heating Rate [W] !Monthly [Value,Min,Day,Hour,Minute,Max,Day,Hour,Minute]
952,11,BLOCK1:ZONE3 IDEAL LOADS AIR,Zone Ideal Loads Heat Recovery Sensible Heating Rate [W] !RunPeriod [Value,Min,Month,Day,Hour,Minute,Max,Month,Day,Hour,Minute]
953,9,BLOCK1:ZONE3 IDEAL LOADS AIR,Zone Ideal Loads Heat Recovery Total Heating Rate [W] !Monthly [Value,Min,Day,Hour,Minute,Max,Day,Hour,Minute]
954,11,BLOCK1:ZONE3 IDEAL LOADS AIR,Zone Ideal Loads Heat Recovery Total Heating Rate [W] !RunPeriod [Value,Min,Month,Day,Hour,Minute,Max,Month,Day,Hour,Minute]
955,9,BLOCK1:ZONE3 IDEAL LOADS AIR,Zone Ideal Loads Heat Recovery Sensible Cooling Rate [W] !Monthly [Value,Min,Day,Hour,Minute,Max,Day,Hour,Minute]
956,11,BLOCK1:ZONE3 IDEAL LOADS AIR,Zone Ideal Loads Heat Recovery Sensible Cooling Rate [W] !RunPeriod [Value,Min,Month,Day,Hour,Minute,Max,Month,Day,Hour,Minute]
957,9,BLOCK1:ZONE3 IDEAL LOADS AIR,Zone Ideal Loads Heat Recovery Total Cooling Rate [W] !Monthly [Value,Min,Day,Hour,Minute,Max,Day,Hour,Minute]
958,11,BLOCK1:ZONE3 IDEAL LOADS AIR,Zone Ideal Loads Heat Recovery Total Cooling Rate [W] !RunPeriod [Value,Min,Month,Day,Hour,Minute,Max,Month,Day,Hour,Minute]
961,9,BLOCK1:ZONE1 IDEAL LOADS AIR,Zone Ideal Loads Supply Air Total Heating Rate [W] !Monthly [Value,Min,Day,Hour,Minute,Max,Day,Hour,Minute]
962,11,BLOCK1:ZONE1 IDEAL LOADS AIR,Zone Ideal Loads Supply Air Total Heating Rate [W] !RunPeriod [Value,Min,Month,Day,Hour,Minute,Max,Month,Day,Hour,Minute]
963,9,BLOCK1:ZONE1 IDEAL LOADS AIR,Zone Ideal Loads Supply Air Sensible Cooling Rate [W] !Monthly [Value,Min,Day,Hour,Minute,Max,Day,Hour,Minute]
964,11,BLOCK1:ZONE1 IDEAL LOADS AIR,Zone Ideal Loads Supply Air Sensible Cooling Rate [W] !RunPeriod [Value,Min,Month,Day,Hour,Minute,Max,Month,Day,Hour,Minute]
965,9,BLOCK1:ZONE1 IDEAL LOADS AIR,Zone Ideal Loads Supply Air Total Cooling Rate [W] !Monthly [Value,Min,Day,Hour,Minute,Max,Day,Hour,Minute]
966,11,BLOCK1:ZONE1 IDEAL LOADS AIR,Zone Ideal Loads Supply Air Total Cooling Rate [W] !RunPeriod [Value,Min,Month,Day,Hour,Minute,Max,Month,Day,Hour,Minute]
967,9,BLOCK1:ZONE1 IDEAL LOADS AIR,Zone Ideal Loads Heat Recovery Sensible Heating Rate [W] !Monthly [Value,Min,Day,Hour,Minute,Max,Day,Hour,Minute]
968,11,BLOCK1:ZONE1 IDEAL LOADS AIR,Zone Ideal Loads Heat Recovery Sensible Heating Rate [W] !RunPeriod [Value,Min,Month,Day,Hour,Minute,Max,Month,Day,Hour,Minute]
969,9,BLOCK1:ZONE1 IDEAL LOADS AIR,Zone Ideal Loads Heat Recovery Total Heating Rate [W] !Monthly [Value,Min,Day,Hour,Minute,Max,Day,Hour,Minute]
970,11,BLOCK1:ZONE1 IDEAL LOADS AIR,Zone Ideal Loads Heat Recovery Total Heating Rate [W] !RunPeriod [Value,Min,Month,Day,Hour,Minute,Max,Month,Day,Hour,Minute]
971,9,BLOCK1:ZONE1 IDEAL LOADS AIR,Zone Ideal Loads Heat Recovery Sensible Cooling Rate [W] !Monthly [Value,Min,Day,Hour,Minute,Max,Day,Hour,Minute]
972,11,BLOCK1:ZONE1 IDEAL LOADS AIR,Zone Ideal Loads Heat Recovery Sensible Cooling Rate [W] !RunPeriod [Value,Min,Month,Day,Hour,Minute,Max,Month,Day,Hour,Minute]
973,9,BLOCK1:ZONE1 IDEAL LOADS AIR,Zone Ideal Loads Heat Recovery Total Cooling Rate [W] !Monthly [Value,Min,Day,Hour,Minute,Max,Day,Hour,Minute]
974,11,BLOCK1:ZONE1 IDEAL LOADS AIR,Zone Ideal Loads Heat Recovery Total Cooling Rate [W] !RunPeriod [Value,Min,Month,Day,Hour,Minute,Max,Month,Day,Hour,Minute]
977,9,BLOCK1:ZONE4 IDEAL LOADS AIR,Zone Ideal Loads Supply Air Total Heating Rate [W] !Monthly [Value,Min,Day,Hour,Minute,Max,Day,Hour,Minute]
978,11,BLOCK1:ZONE4 IDEAL LOADS AIR,Zone Ideal Loads Supply Air Total Heating Rate [W] !RunPeriod [Value,Min,Month,Day,Hour,Minute,Max,Month,Day,Hour,Minute]
979,9,BLOCK1:ZONE4 IDEAL LOADS AIR,Zone Ideal Loads Supply Air Sensible Cooling Rate [W] !Monthly [Value,Min,Day,Hour,Minute,Max,Day,Hour,Minute]
980,11,BLOCK1:ZONE4 IDEAL LOADS AIR,Zone Ideal Loads Supply Air Sensible Cooling Rate [W] !RunPeriod [Value,Min,Month,Day,Hour,Minute,Max,Month,Day,Hour,Minute]
981,9,BLOCK1:ZONE4 IDEAL LOADS AIR,Zone Ideal Loads Supply Air Total Cooling Rate [W] !Monthly [Value,Min,Day,Hour,Minute,Max,Day,Hour,Minute]
982,11,BLOCK1:ZONE4 IDEAL LOADS AIR,Zone Ideal Loads Supply Air Total Cooling Rate [W] !RunPeriod [Value,Min,Month,Day,Hour,Minute,Max,Month,Day,Hour,Minute]
983,9,BLOCK1:ZONE4 IDEAL LOADS AIR,Zone Ideal Loads Heat Recovery Sensible Heating Rate [W] !Monthly [Value,Min,Day,Hour,Minute,Max,Day,Hour,Minute]
984,11,BLOCK1:ZONE4 IDEAL LOADS AIR,Zone Ideal Loads Heat Recovery Sensible Heating Rate [W] !RunPeriod [Value,Min,Month,Day,Hour,Minute,Max,Month,Day,Hour,Minute]
985,9,BLOCK1:ZONE4 IDEAL LOADS AIR,Zone Ideal Loads Heat Recovery Total Heating Rate [W] !Monthly [Value,Min,Day,Hour,Minute,Max,Day,Hour,Minute]
986,11,BLOCK1:ZONE4 IDEAL LOADS AIR,Zone Ideal Loads Heat Recovery Total Heating Rate [W] !RunPeriod [Value,Min,Month,Day,Hour,Minute,Max,Month,Day,Hour,Minute]
987,9,BLOCK1:ZONE4 IDEAL LOADS AIR,Zone Ideal Loads Heat Recovery Sensible Cooling Rate [W] !Monthly [Value,Min,Day,Hour,Minute,Max,Day,Hour,Minute]
988,11,BLOCK1:ZONE4 IDEAL LOADS AIR,Zone Ideal Loads Heat Recovery Sensible Cooling Rate [W] !RunPeriod [Value,Min,Month,Day,Hour,Minute,Max,Month,Day,Hour,Minute]
989,9,BLOCK1:ZONE4 IDEAL LOADS AIR,Zone Ideal Loads Heat Recovery Total Cooling Rate [W] !Monthly [Value,Min,Day,Hour,Minute,Max,Day,Hour,Minute]
990,11,BLOCK1:ZONE4 IDEAL LOADS AIR,Zone Ideal Loads Heat Recovery Total Cooling Rate [W] !RunPeriod [Value,Min,Month,Day,Hour,Minute,Max,Month,Day,Hour,Minute]
993,9,BLOCK1:ZONE2 IDEAL LOADS AIR,Zone Ideal Loads Supply Air Total Heating Rate [W] !Monthly [Value,Min,Day,Hour,Minute,Max,Day,Hour,Minute]
994,11,BLOCK1:ZONE2 IDEAL LOADS AIR,Zone Ideal Loads Supply Air Total Heating Rate [W] !RunPeriod [Value,Min,Month,Day,Hour,Minute,Max,Month,Day,Hour,Minute]
995,9,BLOCK1:ZONE2 IDEAL LOADS AIR,Zone Ideal Loads Supply Air Sensible Cooling Rate [W] !Monthly [Value,Min,Day,Hour,Minute,Max,Day,Hour,Minute]
996,11,BLOCK1:ZONE2 IDEAL LOADS AIR,Zone Ideal Loads Supply Air Sensible Cooling Rate [W] !RunPeriod [Value,Min,Month,Day,Hour,Minute,Max,Month,Day,Hour,Minute]
997,9,BLOCK1:ZONE2 IDEAL LOADS AIR,Zone Ideal Loads Supply Air Total Cooling Rate [W] !Monthly [Value,Min,Day,Hour,Minute,Max,Day,Hour,Minute]
998,11,BLOCK1:ZONE2 IDEAL LOADS AIR,Zone Ideal Loads Supply Air Total Cooling Rate [W] !RunPeriod [Value,Min,Month,Day,Hour,Minute,Max,Month,Day,Hour,Minute]
999,9,BLOCK1:ZONE2 IDEAL LOADS AIR,Zone Ideal Loads Heat Recovery Sensible Heating Rate [W] !Monthly [Value,Min,Day,Hour,Minute,Max,Day,Hour,Minute]
1000,11,BLOCK1:ZONE2 IDEAL LOADS AIR,Zone Ideal Loads Heat Recovery Sensible Heating Rate [W] !RunPeriod [Value,Min,Month,Day,Hour,Minute,Max,Month,Day,Hour,Minute]
1001,9,BLOCK1:ZONE2 IDEAL LOADS AIR,Zone Ideal Loads Heat Recovery Total Heating Rate [W] !Monthly [Value,Min,Day,Hour,Minute,Max,Day,Hour,Minute]
1002,11,BLOCK1:ZONE2 IDEAL LOADS AIR,Zone Ideal Loads Heat Recovery Total Heating Rate [W] !RunPeriod [Value,Min,Month,Day,Hour,Minute,Max,Month,Day,Hour,Minute]
1003,9,BLOCK1:ZONE2 IDEAL LOADS AIR,Zone Ideal Loads Heat Recovery Sensible Cooling Rate [W] !Monthly [Value,Min,Day,Hour,Minute,Max,Day,Hour,Minute]
1004,11,BLOCK1:ZONE2 IDEAL LOADS AIR,Zone Ideal Loads Heat Recovery Sensible Cooling Rate [W] !RunPeriod [Value,Min,Month,Day,Hour,Minute,Max,Month,Day,Hour,Minute]
1005,9,BLOCK1:ZONE2 IDEAL LOADS AIR,Zone Ideal Loads Heat Recovery Total Cooling Rate [W] !Monthly [Value,Min,Day,Hour,Minute,Max,Day,Hour,Minute]
1006,11,BLOCK1:ZONE2 IDEAL LOADS AIR,Zone Ideal Loads Heat Recovery Total Cooling Rate [W] !RunPeriod [Value,Min,Month,Day,Hour,Minute,Max,Month,Day,Hour,Minute]
47,9,Electricity:Facility [J] !Monthly [Value,Min,Day,Hour,Minute,Max,Day,Hour,Minute]
201,9,InteriorEquipment:Electricity [J] !Monthly [Value,Min,Day,Hour,Minute,Max,Day,Hour,Minute]
83,9,InteriorLights:Electricity [J] !Monthly [Value,Min,Day,Hour,Minute,Max,Day,Hour,Minute]
49,11,Electricity:Facility [J] !RunPeriod [Value,Min,Month,Day,Hour,Minute,Max,Month,Day,Hour,Minute]
203,11,InteriorEquipment:Electricity [J] !RunPeriod [Value,Min,Month,Day,Hour,Minute,Max,Month,Day,Hour,Minute]
85,11,InteriorLights:Electricity [J] !RunPeriod [Value,Min,Month,Day,Hour,Minute,Max,Month,Day,Hour,Minute]
723,1,DistrictHeating:Facility [J] !Hourly
910,1,DistrictCooling:Facility [J] !Hourly
912,9,DistrictCooling:Facility [J] !Monthly [Value,Min,Day,Hour,Minute,Max,Day,Hour,Minute]