Program Version,EnergyPlus, Version 9.0.1-bb7ca4f0da, YMD=2021.02.21 23:23
1,5,Environment Title[],Latitude[deg],Longitude[deg],Time Zone[],Elevation[m]
2,8,Day of Simulation[],Month[],Day of Month[],DST Indicator[1=yes 0=no],Hour[],StartMinute[],EndMinute[],DayType
3,5,Cumulative Day of Simulation[],Month[],Day of Month[],DST Indicator[1=yes 0=no],DayType  ! When Daily Meters Requested
4,2,Cumulative Days of Simulation[],Month[]  ! When Monthly Meters Requested
5,1,Cumulative Days of Simulation[] ! When Run Period Meters Requested
6,1,Calendar Year of Simulation[] ! When Annual Meters Requested
47,9,Electricity:Facility [J] !Monthly [Value,Min,Day,Hour,Minute,Max,Day,Hour,Minute]
201,9,InteriorEquipment:Electricity [J] !Monthly [Value,Min,Day,Hour,Minute,Max,Day,Hour,Minute]
83,9,InteriorLights:Electricity [J] !Monthly [Value,Min,Day,Hour,Minute,Max,Day,Hour,Minute]
49,11,Electricity:Facility [J] !RunPeriod [Value,Min,Month,Day,Hour,Minute,Max,Month,Day,Hour,Minute]
203,11,InteriorEquipment:Electricity [J] !RunPeriod [Value,Min,Month,Day,Hour,Minute,Max,Month,Day,Hour,Minute]
85,11,InteriorLights:Electricity [J] !RunPeriod [Value,Min,Month,Day,Hour,Minute,Max,Month,Day,Hour,Minute]
723,1,DistrictHeating:Facility [J] !Hourly
910,1,DistrictCooling:Facility [J] !Hourly
912,9,DistrictCooling:Facility [J] !Monthly [Value,Min,Day,Hour,Minute,Max,Day,Hour,Minute]
725,9,DistrictHeating:Facility [J] !Monthly [Value,Min,Day,Hour,Minute,Max,Day,Hour,Minute]
1011,9,Carbon Equivalent:Facility [kg] !Monthly [Value,Min,Day,Hour,Minute,Max,Day,Hour,Minute]
914,11,DistrictCooling:Facility [J] !RunPeriod [Value,Min,Month,Day,Hour,Minute,Max,Month,Day,Hour,Minute]
727,11,DistrictHeating:Facility [J] !RunPeriod [Value,Min,Month,Day,Hour,Minute,Max,Month,Day,Hour,Minute]
1013,11,Carbon Equivalent:Facility [kg] !RunPeriod [Value,Min,Month,Day,Hour,Minute,Max,Month,Day,Hour,Minute]
End of Data Dictionary
1,LAB_PART1 (01-01:31-12),  45.22,   7.65,   1.00, 287.00
2,1, 1, 1, 0, 1, 0.00,60.00,Sunday
723,0.0
910,0.0
2,1, 1, 1, 0, 2, 0.00,60.00,Sunday
723,0.0
910,0.0
2,1, 1, 1, 0, 3, 0.00,60.00,Sunday
723,0.0
910,0.0
2,1, 1, 1, 0, 4, 0.00,60.00,Sunday
723,0.0
910,0.0
2,1, 1, 1, 0, 5, 0.00,60.00,Sunday
723,0.0
910,0.0
2,1, 1, 1, 0, 6, 0.00,60.00,Sunday
723,32372884.777659865
910,0.0
2,1, 1, 1, 0, 7, 0.00,60.00,Sunday
723,28210214.847552435
910,0.0
2,1, 1, 1, 0, 8, 0.00,60.00,Sunday
723,111396465.3088932
910,0.0
2,1, 1, 1, 0, 9, 0.00,60.00,Sunday
723,100377494.05905055
910,0.0
2,1, 1, 1, 0,10, 0.00,60.00,Sunday
723,87182274.46443036
910,0.0
2,1, 1, 1, 0,11, 0.00,60.00,Sunday
723,61514947.224403169
910,0.0
2,1, 1, 1, 0,12, 0.00,60.00,Sunday
723,55532290.785423908
910,0.0
2,1, 1, 1, 0,13, 0.00,60.00,Sunday
723,51068808.97344069
910,0.0
2,1, 1, 1, 0,14, 0.00,60.00,Sunday
723,48399636.89021184
910,0.0
2,1, 1, 1, 0,15, 0.00,60.00,Sunday
723,46882718.01566608
910,0.0
2,1, 1, 1, 0,16, 0.00,60.00,Sunday
723,45650511.609955098
910,0.0
2,1, 1, 1, 0,17, 0.00,60.00,Sunday
723,44712702.69002692
910,0.0
2,1, 1, 1, 0,18, 0.00,60.00,Sunday
723,72219414.6755974
910,0.0
2,1, 1, 1, 0,19, 0.00,60.00,Sunday
723,65360518.62620567
910,0.0
2,1, 1, 1, 0,20, 0.00,60.00,Sunday
723,54602205.90617628
910,0.0
2,1, 1, 1, 0,21, 0.00,60.00,Sunday
723,52220563.92716298
910,0.0
2,1, 1, 1, 0,22, 0.00,60.00,Sunday
723,8987587.573007483
910,0.0
2,1, 1, 1, 0,23, 0.00,60.00,Sunday
723,8399577.016897725
910,0.0
2,1, 1, 1, 0,24, 0.00,60.00,Sunday
723,0.0
910,0.0
2,2, 1, 2, 0, 1, 0.00,60.00,Monday
723,0.0
910,0.0
2,2, 1, 2, 0, 2, 0.00,60.00,Monday
723,0.0
910,0.0
2,2, 1, 2, 0, 3, 0.00,60.00,Monday
723,0.0
910,0.0
2,2, 1, 2, 0, 4, 0.00,60.00,Monday
723,0.0
910,0.0
2,2, 1, 2, 0, 5, 0.00,60.00,Monday
723,0.0
910,0.0
2,2, 1, 2, 0, 6, 0.00,60.00,Monday
723,124326805.13296034
910,0.0
2,2, 1, 2, 0, 7, 0.00,60.00,Monday
723,105661022.2912111
910,0.0
2,2, 1, 2, 0, 8, 0.00,60.00,Monday
723,78756491.22799683
910,0.0
2,2, 1, 2, 0, 9, 0.00,60.00,Monday
723,75303722.26846598
910,0.0
2,2, 1, 2, 0,10, 0.00,60.00,Monday
723,68145843.94158617
910,0.0
2,2, 1, 2, 0,11, 0.00,60.00,Monday
723,0.0
910,0.0
2,2, 1, 2, 0,12, 0.00,60.00,Monday
723,0.0
910,0.0
2,2, 1, 2, 0,13, 0.00,60.00,Monday
723,0.0
910,0.0
2,2, 1, 2, 0,14, 0.00,60.00,Monday
723,0.0
910,0.0
2,2, 1, 2, 0,15, 0.00,60.00,Monday
723,0.0
910,0.0
2,2, 1, 2, 0,16, 0.00,60.00,Monday
723,78689181.60625938
910,0.0
2,2, 1, 2, 0,17, 0.00,60.00,Monday
723,61883302.728707138
910,0.0
2,2, 1, 2, 0,18, 0.00,60.00,Monday
723,78871885.45643126
910,0.0
2,2, 1, 2, 0,19, 0.00,60.00,Monday
723,71406975.51506575
910,0.0
2,2, 1, 2, 0,20, 0.00,60.00,Monday
723,62478733.79588192
910,0.0
2,2, 1, 2, 0,21, 0.00,60.00,Monday
723,62133506.03377262
910,0.0
2,2, 1, 2, 0,22, 0.00,60.00,Monday
723,61883624.395043257
910,0.0
2,2, 1, 2, 0,23, 0.00,60.00,Monday
723,59590124.72861574
910,0.0
2,2, 1, 2, 0,24, 0.00,60.00,Monday
723,49366122.27893926
910,0.0
2,3, 1, 3, 0, 1, 0.00,60.00,Tuesday
723,0.0
910,0.0
2,3, 1, 3, 0, 2, 0.00,60.00,Tuesday
723,0.0
910,0.0
2,3, 1, 3, 0, 3, 0.00,60.00,Tuesday
723,0.0
910,0.0
2,3, 1, 3, 0, 4, 0.00,60.00,Tuesday
723,0.0
910,0.0
2,3, 1, 3, 0, 5, 0.00,60.00,Tuesday
723,0.0
910,0.0
2,3, 1, 3, 0, 6, 0.00,60.00,Tuesday
723,128181105.28028289
910,0.0
2,3, 1, 3, 0, 7, 0.00,60.00,Tuesday
723,116219203.95489122
910,0.0
2,3, 1, 3, 0, 8, 0.00,60.00,Tuesday
723,86025399.25815983
910,0.0
2,3, 1, 3, 0, 9, 0.00,60.00,Tuesday
723,83016183.39003763
910,0.0
2,3, 1, 3, 0,10, 0.00,60.00,Tuesday
723,75448933.30569104
910,0.0
2,3, 1, 3, 0,11, 0.00,60.00,Tuesday
723,0.0
910,0.0
2,3, 1, 3, 0,12, 0.00,60.00,Tuesday
723,0.0
910,0.0
2,3, 1, 3, 0,13, 0.00,60.00,Tuesday
723,0.0
910,0.0
2,3, 1, 3, 0,14, 0.00,60.00,Tuesday
723,0.0
910,0.0
2,3, 1, 3, 0,15, 0.00,60.00,Tuesday
723,0.0
910,0.0
2,3, 1, 3, 0,16, 0.00,60.00,Tuesday
723,85869383.29286453
910,0.0
2,3, 1, 3, 0,17, 0.00,60.00,Tuesday
723,70969547.08013168
910,0.0
2,3, 1, 3, 0,18, 0.00,60.00,Tuesday
723,88066644.13941925
910,0.0
2,3, 1, 3, 0,19, 0.00,60.00,Tuesday
723,77473050.92547906
910,0.0
2,3, 1, 3, 0,20, 0.00,60.00,Tuesday
723,66110524.29839226
910,0.0
2,3, 1, 3, 0,21, 0.00,60.00,Tuesday
723,63414806.39433101
910,0.0
2,3, 1, 3, 0,22, 0.00,60.00,Tuesday
723,60960347.16915791
910,0.0
2,3, 1, 3, 0,23, 0.00,60.00,Tuesday
723,57913633.48276053
910,0.0
2,3, 1, 3, 0,24, 0.00,60.00,Tuesday
723,47801562.30282512
910,0.0
2,4, 1, 4, 0, 1, 0.00,60.00,Wednesday
723,0.0
910,0.0
2,4, 1, 4, 0, 2, 0.00,60.00,Wednesday
723,0.0
910,0.0
2,4, 1, 4, 0, 3, 0.00,60.00,Wednesday
723,0.0
910,0.0
2,4, 1, 4, 0, 4, 0.00,60.00,Wednesday
723,0.0
910,0.0
2,4, 1, 4, 0, 5, 0.00,60.00,Wednesday
723,0.0
910,0.0
2,4, 1, 4, 0, 6, 0.00,60.00,Wednesday
723,125357919.04000452
910,0.0
2,4, 1, 4, 0, 7, 0.00,60.00,Wednesday
723,108366673.8903727
910,0.0
2,4, 1, 4, 0, 8, 0.00,60.00,Wednesday
723,82085903.28790325
910,0.0
2,4, 1, 4, 0, 9, 0.00,60.00,Wednesday
723,80835302.1932584
910,0.0
2,4, 1, 4, 0,10, 0.00,60.00,Wednesday
723,74237813.62346193
910,0.0
2,4, 1, 4, 0,11, 0.00,60.00,Wednesday
723,0.0
910,0.0
2,4, 1, 4, 0,12, 0.00,60.00,Wednesday
723,0.0
910,0.0
2,4, 1, 4, 0,13, 0.00,60.00,Wednesday
723,0.0
910,0.0
2,4, 1, 4, 0,14, 0.00,60.00,Wednesday
723,0.0
910,0.0
2,4, 1, 4, 0,15, 0.00,60.00,Wednesday
723,0.0
910,0.0
2,4, 1, 4, 0,16, 0.00,60.00,Wednesday
723,89106547.03109649
910,0.0
2,4, 1, 4, 0,17, 0.00,60.00,Wednesday
723,73781180.63842528
910,0.0
2,4, 1, 4, 0,18, 0.00,60.00,Wednesday
723,93898330.90429038
910,0.0
2,4, 1, 4, 0,19, 0.00,60.00,Wednesday
723,87194885.05419229
910,0.0
2,4, 1, 4, 0,20, 0.00,60.00,Wednesday
723,73772963.66303495
910,0.0
2,4, 1, 4, 0,21, 0.00,60.00,Wednesday
723,67870702.30582898
910,0.0
2,4, 1, 4, 0,22, 0.00,60.00,Wednesday
723,61817425.877225119
910,0.0
2,4, 1, 4, 0,23, 0.00,60.00,Wednesday
723,62126617.49601535
910,0.0
2,4, 1, 4, 0,24, 0.00,60.00,Wednesday
723,54393716.11422464
910,0.0
2,5, 1, 5, 0, 1, 0.00,60.00,Thursday
723,0.0
910,0.0
2,5, 1, 5, 0, 2, 0.00,60.00,Thursday
723,0.0
910,0.0
2,5, 1, 5, 0, 3, 0.00,60.00,Thursday
723,0.0
910,0.0
2,5, 1, 5, 0, 4, 0.00,60.00,Thursday
723,4850282.140006381
910,0.0
2,5, 1, 5, 0, 5, 0.00,60.00,Thursday
723,13512589.373960127
910,0.0
2,5, 1, 5, 0, 6, 0.00,60.00,Thursday
723,128798133.26822549
910,0.0
2,5, 1, 5, 0, 7, 0.00,60.00,Thursday
723,128798133.26822281
910,0.0
2,5, 1, 5, 0, 8, 0.00,60.00,Thursday
723,116545534.30328384
910,0.0
2,5, 1, 5, 0, 9, 0.00,60.00,Thursday
723,106091009.7815244
910,0.0
2,5, 1, 5, 0,10, 0.00,60.00,Thursday
723,86224472.91445302
910,0.0
2,5, 1, 5, 0,11, 0.00,60.00,Thursday
723,0.0
910,0.0
2,5, 1, 5, 0,12, 0.00,60.00,Thursday
723,0.0
910,0.0
2,5, 1, 5, 0,13, 0.00,60.00,Thursday
723,0.0
910,0.0
2,5, 1, 5, 0,14, 0.00,60.00,Thursday
723,0.0
910,0.0
2,5, 1, 5, 0,15, 0.00,60.00,Thursday
723,0.0
910,0.0
2,5, 1, 5, 0,16, 0.00,60.00,Thursday
723,87910725.20627319
910,0.0
2,5, 1, 5, 0,17, 0.00,60.00,Thursday
723,73179397.38511418
910,0.0
2,5, 1, 5, 0,18, 0.00,60.00,Thursday
723,94023651.85769373
910,0.0
2,5, 1, 5, 0,19, 0.00,60.00,Thursday
723,88091120.30296918
910,0.0
2,5, 1, 5, 0,20, 0.00,60.00,Thursday
723,76395841.41716832
910,0.0
2,5, 1, 5, 0,21, 0.00,60.00,Thursday
723,73221389.36080489
910,0.0
2,5, 1, 5, 0,22, 0.00,60.00,Thursday
723,69975855.84119992
910,0.0
2,5, 1, 5, 0,23, 0.00,60.00,Thursday
723,66548412.186666008
910,0.0
2,5, 1, 5, 0,24, 0.00,60.00,Thursday
723,53439329.253585848
910,0.0
2,6, 1, 6, 0, 1, 0.00,60.00,Friday
723,0.0
910,0.0
2,6, 1, 6, 0, 2, 0.00,60.00,Friday
723,0.0
910,0.0
2,6, 1, 6, 0, 3, 0.00,60.00,Friday
723,0.0
910,0.0
2,6, 1, 6, 0, 4, 0.00,60.00,Friday
723,0.0
910,0.0
2,6, 1, 6, 0, 5, 0.00,60.00,Friday
723,0.0
910,0.0
2,6, 1, 6, 0, 6, 0.00,60.00,Friday
723,128798133.26822402
910,0.0
2,6, 1, 6, 0, 7, 0.00,60.00,Friday
723,122287381.04712487
910,0.0
2,6, 1, 6, 0, 8, 0.00,60.00,Friday
723,92177086.12601492
910,0.0
2,6, 1, 6, 0, 9, 0.00,60.00,Friday
723,87942587.96427796
910,0.0
2,6, 1, 6, 0,10, 0.00,60.00,Friday
723,80409276.01524893
910,0.0
2,6, 1, 6, 0,11, 0.00,60.00,Friday
723,0.0
910,0.0
2,6, 1, 6, 0,12, 0.00,60.00,Friday
723,0.0
910,0.0
2,6, 1, 6, 0,13, 0.00,60.00,Friday
723,0.0
910,0.0
2,6, 1, 6, 0,14, 0.00,60.00,Friday
723,0.0
910,0.0
2,6, 1, 6, 0,15, 0.00,60.00,Friday
723,0.0
910,0.0
2,6, 1, 6, 0,16, 0.00,60.00,Friday
723,87683659.1321404
910,0.0
2,6, 1, 6, 0,17, 0.00,60.00,Friday
723,74150240.66522068
910,0.0
2,6, 1, 6, 0,18, 0.00,60.00,Friday
723,97025789.60366622
910,0.0
2,6, 1, 6, 0,19, 0.00,60.00,Friday
723,93670978.88335222
910,0.0
2,6, 1, 6, 0,20, 0.00,60.00,Friday
723,83273721.56897395
910,0.0
2,6, 1, 6, 0,21, 0.00,60.00,Friday
723,81339594.72647158
910,0.0
2,6, 1, 6, 0,22, 0.00,60.00,Friday
723,79067838.40877679
910,0.0
2,6, 1, 6, 0,23, 0.00,60.00,Friday
723,77208700.00224748
910,0.0
2,6, 1, 6, 0,24, 0.00,60.00,Friday
723,62195664.016535218
910,0.0
2,7, 1, 7, 0, 1, 0.00,60.00,Saturday
723,0.0
910,0.0
2,7, 1, 7, 0, 2, 0.00,60.00,Saturday
723,0.0
910,0.0
2,7, 1, 7, 0, 3, 0.00,60.00,Saturday
723,1023554.5204937897
910,0.0
2,7, 1, 7, 0, 4, 0.00,60.00,Saturday
723,7642917.520361803
910,0.0
2,7, 1, 7, 0, 5, 0.00,60.00,Saturday
723,15017140.427338759
910,0.0
2,7, 1, 7, 0, 6, 0.00,60.00,Saturday
723,50121710.005772087
910,0.0
2,7, 1, 7, 0, 7, 0.00,60.00,Saturday
723,52932955.55357595
910,0.0
2,7, 1, 7, 0, 8, 0.00,60.00,Saturday
723,120920132.77003698
910,0.0
2,7, 1, 7, 0, 9, 0.00,60.00,Saturday
723,115696105.15019675
910,0.0
2,7, 1, 7, 0,10, 0.00,60.00,Saturday
723,111211096.11427695
910,0.0
2,7, 1, 7, 0,11, 0.00,60.00,Saturday
723,78452784.57541766
910,0.0
2,7, 1, 7, 0,12, 0.00,60.00,Saturday
723,63576544.09006712
910,0.0
2,7, 1, 7, 0,13, 0.00,60.00,Saturday
723,50577779.846847597
910,0.0
2,7, 1, 7, 0,14, 0.00,60.00,Saturday
723,42567880.678087908
910,0.0
2,7, 1, 7, 0,15, 0.00,60.00,Saturday
723,43658374.81436089
910,0.0
2,7, 1, 7, 0,16, 0.00,60.00,Saturday
723,44586046.101189527
910,0.0
2,7, 1, 7, 0,17, 0.00,60.00,Saturday
723,44663317.30689738
910,0.0
2,7, 1, 7, 0,18, 0.00,60.00,Saturday
723,78064927.89669505
910,0.0
2,7, 1, 7, 0,19, 0.00,60.00,Saturday
723,76819292.01394776
910,0.0
2,7, 1, 7, 0,20, 0.00,60.00,Saturday
723,68254181.08790362
910,0.0
2,7, 1, 7, 0,21, 0.00,60.00,Saturday
723,66370862.373789299
910,0.0
2,7, 1, 7, 0,22, 0.00,60.00,Saturday
723,13265559.356855458
910,0.0
2,7, 1, 7, 0,23, 0.00,60.00,Saturday
723,12561279.44372359
910,0.0
2,7, 1, 7, 0,24, 0.00,60.00,Saturday
723,0.0
910,0.0
2,8, 1, 8, 0, 1, 0.00,60.00,Sunday
723,0.0
910,0.0
2,8, 1, 8, 0, 2, 0.00,60.00,Sunday
723,0.0
910,0.0
2,8, 1, 8, 0, 3, 0.00,60.00,Sunday
723,1399549.5005440582
910,0.0
2,8, 1, 8, 0, 4, 0.00,60.00,Sunday
723,7051758.292740386
910,0.0
2,8, 1, 8, 0, 5, 0.00,60.00,Sunday
723,13083187.710306777
910,0.0
2,8, 1, 8, 0, 6, 0.00,60.00,Sunday
723,49573704.06696837
910,0.0
2,8, 1, 8, 0, 7, 0.00,60.00,Sunday
723,52367976.16190971
910,0.0
2,8, 1, 8, 0, 8, 0.00,60.00,Sunday
723,118911313.92827575
910,0.0
2,8, 1, 8, 0, 9, 0.00,60.00,Sunday
723,114111365.14003527
910,0.0
2,8, 1, 8, 0,10, 0.00,60.00,Sunday
723,109178115.84799826
910,0.0
2,8, 1, 8, 0,11, 0.00,60.00,Sunday
723,78815330.44861835
910,0.0
2,8, 1, 8, 0,12, 0.00,60.00,Sunday
723,68767881.29313527
910,0.0
2,8, 1, 8, 0,13, 0.00,60.00,Sunday
723,60747878.43536868
910,0.0
2,8, 1, 8, 0,14, 0.00,60.00,Sunday
723,57345741.88782293
910,0.0
2,8, 1, 8, 0,15, 0.00,60.00,Sunday
723,55613499.33828798
910,0.0
2,8, 1, 8, 0,16, 0.00,60.00,Sunday
723,54592058.912663448
910,0.0
2,8, 1, 8, 0,17, 0.00,60.00,Sunday
723,54178556.44386417
910,0.0
2,8, 1, 8, 0,18, 0.00,60.00,Sunday
723,87967056.41803596
910,0.0
2,8, 1, 8, 0,19, 0.00,60.00,Sunday
723,83307348.62220954
910,0.0
2,8, 1, 8, 0,20, 0.00,60.00,Sunday
723,71981800.96647856
910,0.0
2,8, 1, 8, 0,21, 0.00,60.00,Sunday
723,68815631.03053972
910,0.0
2,8, 1, 8, 0,22, 0.00,60.00,Sunday
723,13683826.542171954
910,0.0
2,8, 1, 8, 0,23, 0.00,60.00,Sunday
723,12752303.34446937
910,0.0
2,8, 1, 8, 0,24, 0.00,60.00,Sunday
723,0.0
910,0.0
2,9, 1, 9, 0, 1, 0.00,60.00,Monday
723,0.0
910,0.0
2,9, 1, 9, 0, 2, 0.00,60.00,Monday
723,0.0
910,0.0
2,9, 1, 9, 0, 3, 0.00,60.00,Monday
723,0.0
910,0.0
2,9, 1, 9, 0, 4, 0.00,60.00,Monday
723,1758610.409693597
910,0.0
2,9, 1, 9, 0, 5, 0.00,60.00,Monday
723,4401671.002521096
910,0.0
2,9, 1, 9, 0, 6, 0.00,60.00,Monday
723,128798133.26822463
910,0.0
2,9, 1, 9, 0, 7, 0.00,60.00,Monday
723,124472022.42428819
910,0.0
2,9, 1, 9, 0, 8, 0.00,60.00,Monday
723,91994915.13961935
910,0.0
2,9, 1, 9, 0, 9, 0.00,60.00,Monday
723,85583333.22842023
910,0.0
2,9, 1, 9, 0,10, 0.00,60.00,Monday
723,76518733.51750392
910,0.0
2,9, 1, 9, 0,11, 0.00,60.00,Monday
723,0.0
910,0.0
2,9, 1, 9, 0,12, 0.00,60.00,Monday
723,0.0
910,0.0
2,9, 1, 9, 0,13, 0.00,60.00,Monday
723,0.0
910,0.0
2,9, 1, 9, 0,14, 0.00,60.00,Monday
723,0.0
910,0.0
2,9, 1, 9, 0,15, 0.00,60.00,Monday
723,0.0
910,0.0
2,9, 1, 9, 0,16, 0.00,60.00,Monday
723,76927788.63960928
910,0.0
2,9, 1, 9, 0,17, 0.00,60.00,Monday
723,61822364.93943485
910,0.0
2,9, 1, 9, 0,18, 0.00,60.00,Monday
723,82383867.30176585
910,0.0
2,9, 1, 9, 0,19, 0.00,60.00,Monday
723,78968500.17065168
910,0.0
2,9, 1, 9, 0,20, 0.00,60.00,Monday
723,72534024.94446635
910,0.0
2,9, 1, 9, 0,21, 0.00,60.00,Monday
723,73857145.53792045
910,0.0
2,9, 1, 9, 0,22, 0.00,60.00,Monday
723,75234809.42301265
910,0.0
2,9, 1, 9, 0,23, 0.00,60.00,Monday
723,73365880.48075143
910,0.0
2,9, 1, 9, 0,24, 0.00,60.00,Monday
723,58735803.42627977
910,0.0
2,10, 1,10, 0, 1, 0.00,60.00,Tuesday
723,0.0
910,0.0
2,10, 1,10, 0, 2, 0.00,60.00,Tuesday
723,0.0
910,0.0
2,10, 1,10, 0, 3, 0.00,60.00,Tuesday
723,0.0
910,0.0
2,10, 1,10, 0, 4, 0.00,60.00,Tuesday
723,3637027.384449452
910,0.0
2,10, 1,10, 0, 5, 0.00,60.00,Tuesday
723,11224607.698553089
910,0.0
2,10, 1,10, 0, 6, 0.00,60.00,Tuesday
723,128798133.26822475
910,0.0
2,10, 1,10, 0, 7, 0.00,60.00,Tuesday
723,128760805.17866
910,0.0
2,10, 1,10, 0, 8, 0.00,60.00,Tuesday
723,106937204.5985285
910,0.0
2,10, 1,10, 0, 9, 0.00,60.00,Tuesday
723,93705382.07584791
910,0.0
2,10, 1,10, 0,10, 0.00,60.00,Tuesday
723,80352315.87369144
910,0.0
2,10, 1,10, 0,11, 0.00,60.00,Tuesday
723,0.0
910,0.0
2,10, 1,10, 0,12, 0.00,60.00,Tuesday
723,0.0
910,0.0
2,10, 1,10, 0,13, 0.00,60.00,Tuesday
723,0.0
910,0.0
2,10, 1,10, 0,14, 0.00,60.00,Tuesday
723,0.0
910,0.0
2,10, 1,10, 0,15, 0.00,60.00,Tuesday
723,0.0
910,0.0
2,10, 1,10, 0,16, 0.00,60.00,Tuesday
723,78692486.26235982
910,0.0
2,10, 1,10, 0,17, 0.00,60.00,Tuesday
723,66583384.11166239
910,0.0
2,10, 1,10, 0,18, 0.00,60.00,Tuesday
723,92334731.25035078
910,0.0
2,10, 1,10, 0,19, 0.00,60.00,Tuesday
723,91202955.31484811
910,0.0
2,10, 1,10, 0,20, 0.00,60.00,Tuesday
723,85404334.58302549
910,0.0
2,10, 1,10, 0,21, 0.00,60.00,Tuesday
723,87260312.96659526
910,0.0
2,10, 1,10, 0,22, 0.00,60.00,Tuesday
723,88545422.52296815
910,0.0
2,10, 1,10, 0,23, 0.00,60.00,Tuesday
723,81507290.1724092
910,0.0
2,10, 1,10, 0,24, 0.00,60.00,Tuesday
723,59990352.776844698
910,0.0
2,11, 1,11, 0, 1, 0.00,60.00,Wednesday
723,0.0
910,0.0
2,11, 1,11, 0, 2, 0.00,60.00,Wednesday
723,0.0
910,0.0
2,11, 1,11, 0, 3, 0.00,60.00,Wednesday
723,0.0
910,0.0
2,11, 1,11, 0, 4, 0.00,60.00,Wednesday
723,0.0
910,0.0
2,11, 1,11, 0, 5, 0.00,60.00,Wednesday
723,1251611.9474740248
910,0.0
2,11, 1,11, 0, 6, 0.00,60.00,Wednesday
723,128798133.26822452
910,0.0
2,11, 1,11, 0, 7, 0.00,60.00,Wednesday
723,126770488.4792538
910,0.0
2,11, 1,11, 0, 8, 0.00,60.00,Wednesday
723,100737793.62170699
910,0.0
2,11, 1,11, 0, 9, 0.00,60.00,Wednesday
723,96460230.42915699
910,0.0
2,11, 1,11, 0,10, 0.00,60.00,Wednesday
723,87232951.4872869
910,0.0
2,11, 1,11, 0,11, 0.00,60.00,Wednesday
723,0.0
910,0.0
2,11, 1,11, 0,12, 0.00,60.00,Wednesday
723,0.0
910,0.0
2,11, 1,11, 0,13, 0.00,60.00,Wednesday
723,0.0
910,0.0
2,11, 1,11, 0,14, 0.00,60.00,Wednesday
723,0.0
910,0.0
2,11, 1,11, 0,15, 0.00,60.00,Wednesday
723,0.0
910,0.0
2,11, 1,11, 0,16, 0.00,60.00,Wednesday
723,81658544.71385572
910,0.0
2,11, 1,11, 0,17, 0.00,60.00,Wednesday
723,65254569.37051971
910,0.0
2,11, 1,11, 0,18, 0.00,60.00,Wednesday
723,88631548.7286863
910,0.0
2,11, 1,11, 0,19, 0.00,60.00,Wednesday
723,85295000.19417477
910,0.0
2,11, 1,11, 0,20, 0.00,60.00,Wednesday
723,76895497.70195076
910,0.0
2,11, 1,11, 0,21, 0.00,60.00,Wednesday
723,76225545.38577998
910,0.0
2,11, 1,11, 0,22, 0.00,60.00,Wednesday
723,75477503.38121458
910,0.0
2,11, 1,11, 0,23, 0.00,60.00,Wednesday
723,71670620.91154203
910,0.0
2,11, 1,11, 0,24, 0.00,60.00,Wednesday
723,56224880.873526129
910,0.0
2,12, 1,12, 0, 1, 0.00,60.00,Thursday
723,0.0
910,0.0
2,12, 1,12, 0, 2, 0.00,60.00,Thursday
723,0.0
910,0.0
2,12, 1,12, 0, 3, 0.00,60.00,Thursday
723,0.0
910,0.0
2,12, 1,12, 0, 4, 0.00,60.00,Thursday
723,0.0
910,0.0
2,12, 1,12, 0, 5, 0.00,60.00,Thursday
723,0.0
910,0.0
2,12, 1,12, 0, 6, 0.00,60.00,Thursday
723,116903535.54113418
910,0.0
2,12, 1,12, 0, 7, 0.00,60.00,Thursday
723,96310245.05399263
910,0.0
2,12, 1,12, 0, 8, 0.00,60.00,Thursday
723,69743140.84738797
910,0.0
2,12, 1,12, 0, 9, 0.00,60.00,Thursday
723,65494024.97532192
910,0.0
2,12, 1,12, 0,10, 0.00,60.00,Thursday
723,58717005.38072375
910,0.0
2,12, 1,12, 0,11, 0.00,60.00,Thursday
723,0.0
910,0.0
2,12, 1,12, 0,12, 0.00,60.00,Thursday
723,0.0
910,0.0
2,12, 1,12, 0,13, 0.00,60.00,Thursday
723,0.0
910,0.0
2,12, 1,12, 0,14, 0.00,60.00,Thursday
723,0.0
910,0.0
2,12, 1,12, 0,15, 0.00,60.00,Thursday
723,0.0
910,0.0
2,12, 1,12, 0,16, 0.00,60.00,Thursday
723,44477920.907800618
910,0.0
2,12, 1,12, 0,17, 0.00,60.00,Thursday
723,37710316.65213953
910,0.0
2,12, 1,12, 0,18, 0.00,60.00,Thursday
723,45386246.00172967
910,0.0
2,12, 1,12, 0,19, 0.00,60.00,Thursday
723,42979630.57458664
910,0.0
2,12, 1,12, 0,20, 0.00,60.00,Thursday
723,36585450.28308466
910,0.0
2,12, 1,12, 0,21, 0.00,60.00,Thursday
723,39000102.832911599
910,0.0
2,12, 1,12, 0,22, 0.00,60.00,Thursday
723,41787652.34309361
910,0.0
2,12, 1,12, 0,23, 0.00,60.00,Thursday
723,45247179.9687213
910,0.0
2,12, 1,12, 0,24, 0.00,60.00,Thursday
723,43080314.24815482
910,0.0
2,13, 1,13, 0, 1, 0.00,60.00,Friday
723,0.0
910,0.0
2,13, 1,13, 0, 2, 0.00,60.00,Friday
723,0.0
910,0.0
2,13, 1,13, 0, 3, 0.00,60.00,Friday
723,0.0
910,0.0
2,13, 1,13, 0, 4, 0.00,60.00,Friday
723,0.0
910,0.0
2,13, 1,13, 0, 5, 0.00,60.00,Friday
723,0.0
910,0.0
2,13, 1,13, 0, 6, 0.00,60.00,Friday
723,127917376.2911477
910,0.0
2,13, 1,13, 0, 7, 0.00,60.00,Friday
723,116124694.17280582
910,0.0
2,13, 1,13, 0, 8, 0.00,60.00,Friday
723,87724263.223338
910,0.0
2,13, 1,13, 0, 9, 0.00,60.00,Friday
723,83368787.81102224
910,0.0
2,13, 1,13, 0,10, 0.00,60.00,Friday
723,73947485.01707784
910,0.0
2,13, 1,13, 0,11, 0.00,60.00,Friday
723,0.0
910,0.0
2,13, 1,13, 0,12, 0.00,60.00,Friday
723,0.0
910,0.0
2,13, 1,13, 0,13, 0.00,60.00,Friday
723,0.0
910,0.0
2,13, 1,13, 0,14, 0.00,60.00,Friday
723,0.0
910,0.0
2,13, 1,13, 0,15, 0.00,60.00,Friday
723,0.0
910,0.0
2,13, 1,13, 0,16, 0.00,60.00,Friday
723,58164227.32448585
910,0.0
2,13, 1,13, 0,17, 0.00,60.00,Friday
723,45759846.10117795
910,0.0
2,13, 1,13, 0,18, 0.00,60.00,Friday
723,61243058.2600368
910,0.0
2,13, 1,13, 0,19, 0.00,60.00,Friday
723,59520463.999293278
910,0.0
2,13, 1,13, 0,20, 0.00,60.00,Friday
723,55032982.17766178
910,0.0
2,13, 1,13, 0,21, 0.00,60.00,Friday
723,58975616.068134438
910,0.0
2,13, 1,13, 0,22, 0.00,60.00,Friday
723,60333045.183304738
910,0.0
2,13, 1,13, 0,23, 0.00,60.00,Friday
723,58812777.65424539
910,0.0
2,13, 1,13, 0,24, 0.00,60.00,Friday
723,48627229.35281453
910,0.0
2,14, 1,14, 0, 1, 0.00,60.00,Saturday
723,0.0
910,0.0
2,14, 1,14, 0, 2, 0.00,60.00,Saturday
723,0.0
910,0.0
2,14, 1,14, 0, 3, 0.00,60.00,Saturday
723,0.0
910,0.0
2,14, 1,14, 0, 4, 0.00,60.00,Saturday
723,0.0
910,0.0
2,14, 1,14, 0, 5, 0.00,60.00,Saturday
723,0.0
910,0.0
2,14, 1,14, 0, 6, 0.00,60.00,Saturday
723,33806058.88157707
910,0.0
2,14, 1,14, 0, 7, 0.00,60.00,Saturday
723,30379884.071262994
910,0.0
2,14, 1,14, 0, 8, 0.00,60.00,Saturday
723,111664068.84269884
910,0.0
2,14, 1,14, 0, 9, 0.00,60.00,Saturday
723,99936026.35629833
910,0.0
2,14, 1,14, 0,10, 0.00,60.00,Saturday
723,86394091.91678283
910,0.0
2,14, 1,14, 0,11, 0.00,60.00,Saturday
723,56346273.7820163
910,0.0
2,14, 1,14, 0,12, 0.00,60.00,Saturday
723,44558260.77020085
910,0.0
2,14, 1,14, 0,13, 0.00,60.00,Saturday
723,34015022.05322568
910,0.0
2,14, 1,14, 0,14, 0.00,60.00,Saturday
723,29692675.61987254
910,0.0
2,14, 1,14, 0,15, 0.00,60.00,Saturday
723,27605956.17387507
910,0.0
2,14, 1,14, 0,16, 0.00,60.00,Saturday
723,26320379.250849695
910,0.0
2,14, 1,14, 0,17, 0.00,60.00,Saturday
723,27575414.333265976
910,0.0
2,14, 1,14, 0,18, 0.00,60.00,Saturday
723,50529091.31756784
910,0.0
2,14, 1,14, 0,19, 0.00,60.00,Saturday
723,49888343.87646188
910,0.0
2,14, 1,14, 0,20, 0.00,60.00,Saturday
723,43988400.12139457
910,0.0
2,14, 1,14, 0,21, 0.00,60.00,Saturday
723,45425717.543259549
910,0.0
2,14, 1,14, 0,22, 0.00,60.00,Saturday
723,8045049.2213496849
910,0.0
2,14, 1,14, 0,23, 0.00,60.00,Saturday
723,6720736.114817258
910,0.0
2,14, 1,14, 0,24, 0.00,60.00,Saturday
723,0.0
910,0.0
2,15, 1,15, 0, 1, 0.00,60.00,Sunday
723,0.0
910,0.0
2,15, 1,15, 0, 2, 0.00,60.00,Sunday
723,0.0
910,0.0
2,15, 1,15, 0, 3, 0.00,60.00,Sunday
723,0.0
910,0.0
2,15, 1,15, 0, 4, 0.00,60.00,Sunday
723,0.0
910,0.0
2,15, 1,15, 0, 5, 0.00,60.00,Sunday
723,0.0
910,0.0
2,15, 1,15, 0, 6, 0.00,60.00,Sunday
723,15434624.169579946
910,0.0
2,15, 1,15, 0, 7, 0.00,60.00,Sunday
723,13393783.031025552
910,0.0
2,15, 1,15, 0, 8, 0.00,60.00,Sunday
723,71250432.4091816
910,0.0
2,15, 1,15, 0, 9, 0.00,60.00,Sunday
723,56567180.652985069
910,0.0
2,15, 1,15, 0,10, 0.00,60.00,Sunday
723,41942476.41370952
910,0.0
2,15, 1,15, 0,11, 0.00,60.00,Sunday
723,19416861.060934046
910,0.0
2,15, 1,15, 0,12, 0.00,60.00,Sunday
723,15816700.558743056
910,0.0
2,15, 1,15, 0,13, 0.00,60.00,Sunday
723,13001200.074107234
910,0.0
2,15, 1,15, 0,14, 0.00,60.00,Sunday
723,11112801.9385151
910,0.0
2,15, 1,15, 0,15, 0.00,60.00,Sunday
723,9823633.54735661
910,0.0
2,15, 1,15, 0,16, 0.00,60.00,Sunday
723,8921236.707128074
910,0.0
2,15, 1,15, 0,17, 0.00,60.00,Sunday
723,9857827.124361469
910,0.0
2,15, 1,15, 0,18, 0.00,60.00,Sunday
723,18527939.573665918
910,0.0
2,15, 1,15, 0,19, 0.00,60.00,Sunday
723,21065792.09047621
910,0.0
2,15, 1,15, 0,20, 0.00,60.00,Sunday
723,17741588.680871637
910,0.0
2,15, 1,15, 0,21, 0.00,60.00,Sunday
723,19200003.488805079
910,0.0
2,15, 1,15, 0,22, 0.00,60.00,Sunday
723,3394545.6777296916
910,0.0
2,15, 1,15, 0,23, 0.00,60.00,Sunday
723,3394545.677729692
910,0.0
2,15, 1,15, 0,24, 0.00,60.00,Sunday
723,0.0
910,0.0
2,16, 1,16, 0, 1, 0.00,60.00,Monday
723,0.0
910,0.0
2,16, 1,16, 0, 2, 0.00,60.00,Monday
723,0.0
910,0.0
2,16, 1,16, 0, 3, 0.00,60.00,Monday
723,0.0
910,0.0
2,16, 1,16, 0, 4, 0.00,60.00,Monday
723,0.0
910,0.0
2,16, 1,16, 0, 5, 0.00,60.00,Monday
723,0.0
910,0.0
2,16, 1,16, 0, 6, 0.00,60.00,Monday
723,102909760.51571104
910,0.0
2,16, 1,16, 0, 7, 0.00,60.00,Monday
723,83706427.62272668
910,0.0
2,16, 1,16, 0, 8, 0.00,60.00,Monday
723,69133420.71014709
910,0.0
2,16, 1,16, 0, 9, 0.00,60.00,Monday
723,69647089.74354968
910,0.0
2,16, 1,16, 0,10, 0.00,60.00,Monday
723,65053176.557179529
910,0.0
2,16, 1,16, 0,11, 0.00,60.00,Monday
723,0.0
910,0.0
2,16, 1,16, 0,12, 0.00,60.00,Monday
723,0.0
910,0.0
2,16, 1,16, 0,13, 0.00,60.00,Monday
723,0.0
910,0.0
2,16, 1,16, 0,14, 0.00,60.00,Monday
723,0.0
910,0.0
2,16, 1,16, 0,15, 0.00,60.00,Monday
723,0.0
910,0.0
2,16, 1,16, 0,16, 0.00,60.00,Monday
723,27440483.85818527
910,0.0
2,16, 1,16, 0,17, 0.00,60.00,Monday
723,30127804.606568237
910,0.0
2,16, 1,16, 0,18, 0.00,60.00,Monday
723,34242598.5485551
910,0.0
2,16, 1,16, 0,19, 0.00,60.00,Monday
723,38581671.305288318
910,0.0
2,16, 1,16, 0,20, 0.00,60.00,Monday
723,31482490.37674097
910,0.0
2,16, 1,16, 0,21, 0.00,60.00,Monday
723,31301203.497219337
910,0.0
2,16, 1,16, 0,22, 0.00,60.00,Monday
723,31216319.92677141
910,0.0
2,16, 1,16, 0,23, 0.00,60.00,Monday
723,32923013.762742558
910,0.0
2,16, 1,16, 0,24, 0.00,60.00,Monday
723,34003177.25107336
910,0.0
2,17, 1,17, 0, 1, 0.00,60.00,Tuesday
723,0.0
910,0.0
2,17, 1,17, 0, 2, 0.00,60.00,Tuesday
723,0.0
910,0.0
2,17, 1,17, 0, 3, 0.00,60.00,Tuesday
723,0.0
910,0.0
2,17, 1,17, 0, 4, 0.00,60.00,Tuesday
723,0.0
910,0.0
2,17, 1,17, 0, 5, 0.00,60.00,Tuesday
723,0.0
910,0.0
2,17, 1,17, 0, 6, 0.00,60.00,Tuesday
723,123117777.81800303
910,0.0
2,17, 1,17, 0, 7, 0.00,60.00,Tuesday
723,105249170.40330228
910,0.0
2,17, 1,17, 0, 8, 0.00,60.00,Tuesday
723,78619944.31291044
910,0.0
2,17, 1,17, 0, 9, 0.00,60.00,Tuesday
723,72510610.0422776
910,0.0
2,17, 1,17, 0,10, 0.00,60.00,Tuesday
723,61426916.17806836
910,0.0
2,17, 1,17, 0,11, 0.00,60.00,Tuesday
723,0.0
910,0.0
2,17, 1,17, 0,12, 0.00,60.00,Tuesday
723,0.0
910,0.0
2,17, 1,17, 0,13, 0.00,60.00,Tuesday
723,0.0
910,0.0
2,17, 1,17, 0,14, 0.00,60.00,Tuesday
723,0.0
910,0.0
2,17, 1,17, 0,15, 0.00,60.00,Tuesday
723,0.0
910,0.0
2,17, 1,17, 0,16, 0.00,60.00,Tuesday
723,50162335.917314779
910,0.0
2,17, 1,17, 0,17, 0.00,60.00,Tuesday
723,42771932.08644681
910,0.0
2,17, 1,17, 0,18, 0.00,60.00,Tuesday
723,56614118.71847974
910,0.0
2,17, 1,17, 0,19, 0.00,60.00,Tuesday
723,58506190.72577827
910,0.0
2,17, 1,17, 0,20, 0.00,60.00,Tuesday
723,55567407.32898536
910,0.0
2,17, 1,17, 0,21, 0.00,60.00,Tuesday
723,60525914.94783232
910,0.0
2,17, 1,17, 0,22, 0.00,60.00,Tuesday
723,64706815.30628626
910,0.0
2,17, 1,17, 0,23, 0.00,60.00,Tuesday
723,63203903.7003708
910,0.0
2,17, 1,17, 0,24, 0.00,60.00,Tuesday
723,51709970.92177169
910,0.0
2,18, 1,18, 0, 1, 0.00,60.00,Wednesday
723,0.0
910,0.0
2,18, 1,18, 0, 2, 0.00,60.00,Wednesday
723,0.0
910,0.0
2,18, 1,18, 0, 3, 0.00,60.00,Wednesday
723,0.0
910,0.0
2,18, 1,18, 0, 4, 0.00,60.00,Wednesday
723,0.0
910,0.0
2,18, 1,18, 0, 5, 0.00,60.00,Wednesday
723,202172.6803836715
910,0.0
2,18, 1,18, 0, 6, 0.00,60.00,Wednesday
723,127952683.13031753
910,0.0
2,18, 1,18, 0, 7, 0.00,60.00,Wednesday
723,118278202.727329
910,0.0
2,18, 1,18, 0, 8, 0.00,60.00,Wednesday
723,88207897.5324587
910,0.0
2,18, 1,18, 0, 9, 0.00,60.00,Wednesday
723,85416978.94742161
910,0.0
2,18, 1,18, 0,10, 0.00,60.00,Wednesday
723,76852569.64877156
910,0.0
2,18, 1,18, 0,11, 0.00,60.00,Wednesday
723,0.0
910,0.0
2,18, 1,18, 0,12, 0.00,60.00,Wednesday
723,0.0
910,0.0
2,18, 1,18, 0,13, 0.00,60.00,Wednesday
723,0.0
910,0.0
2,18, 1,18, 0,14, 0.00,60.00,Wednesday
723,0.0
910,0.0
2,18, 1,18, 0,15, 0.00,60.00,Wednesday
723,0.0
910,0.0
2,18, 1,18, 0,16, 0.00,60.00,Wednesday
723,78728666.74292775
910,0.0
2,18, 1,18, 0,17, 0.00,60.00,Wednesday
723,63173577.98097971
910,0.0
2,18, 1,18, 0,18, 0.00,60.00,Wednesday
723,83730559.89392123
910,0.0
2,18, 1,18, 0,19, 0.00,60.00,Wednesday
723,78645635.04394549
910,0.0
2,18, 1,18, 0,20, 0.00,60.00,Wednesday
723,71024554.55229178
910,0.0
2,18, 1,18, 0,21, 0.00,60.00,Wednesday
723,71263974.519721
910,0.0
2,18, 1,18, 0,22, 0.00,60.00,Wednesday
723,71229983.06443715
910,0.0
2,18, 1,18, 0,23, 0.00,60.00,Wednesday
723,69401339.29363606
910,0.0
2,18, 1,18, 0,24, 0.00,60.00,Wednesday
723,56573373.05195421
910,0.0
2,19, 1,19, 0, 1, 0.00,60.00,Thursday
723,0.0
910,0.0
2,19, 1,19, 0, 2, 0.00,60.00,Thursday
723,0.0
910,0.0
2,19, 1,19, 0, 3, 0.00,60.00,Thursday
723,0.0
910,0.0
2,19, 1,19, 0, 4, 0.00,60.00,Thursday
723,0.0
910,0.0
2,19, 1,19, 0, 5, 0.00,60.00,Thursday
723,1117547.5389568634
910,0.0
2,19, 1,19, 0, 6, 0.00,60.00,Thursday
723,128798133.26822394
910,0.0
2,19, 1,19, 0, 7, 0.00,60.00,Thursday
723,125382414.45346672
910,0.0
2,19, 1,19, 0, 8, 0.00,60.00,Thursday
723,96100751.3256294
910,0.0
2,19, 1,19, 0, 9, 0.00,60.00,Thursday
723,89406250.93912246
910,0.0
2,19, 1,19, 0,10, 0.00,60.00,Thursday
723,79585815.49369245
910,0.0
2,19, 1,19, 0,11, 0.00,60.00,Thursday
723,0.0
910,0.0
2,19, 1,19, 0,12, 0.00,60.00,Thursday
723,0.0
910,0.0
2,19, 1,19, 0,13, 0.00,60.00,Thursday
723,0.0
910,0.0
2,19, 1,19, 0,14, 0.00,60.00,Thursday
723,0.0
910,0.0
2,19, 1,19, 0,15, 0.00,60.00,Thursday
723,0.0
910,0.0
2,19, 1,19, 0,16, 0.00,60.00,Thursday
723,60725393.51158002
910,0.0
2,19, 1,19, 0,17, 0.00,60.00,Thursday
723,49369630.02195272
910,0.0
2,19, 1,19, 0,18, 0.00,60.00,Thursday
723,66393924.85130575
910,0.0
2,19, 1,19, 0,19, 0.00,60.00,Thursday
723,64986282.886533129
910,0.0
2,19, 1,19, 0,20, 0.00,60.00,Thursday
723,56047801.11898816