Program Version,EnergyPlus, Version 9.0.1-bb7ca4f0da, YMD=2021.01.02 20:24
1,5,Environment Title[],Latitude[deg],Longitude[deg],Time Zone[],Elevation[m]
2,8,Day of Simulation[],Month[],Day of Month[],DST Indicator[1=yes 0=no],Hour[],StartMinute[],EndMinute[],DayType
3,5,Cumulative Day of Simulation[],Month[],Day of Month[],DST Indicator[1=yes 0=no],DayType  ! When Daily Report Variables Requested
4,2,Cumulative Days of Simulation[],Month[]  ! When Monthly Report Variables Requested
5,1,Cumulative Days of Simulation[] ! When Run Period Report Variables Requested
6,1,Calendar Year of Simulation[] ! When Annual Report Variables Requested
7,9,Environment,Site Outdoor Air Drybulb Temperature [C] !Monthly [Value,Min,Day,Hour,Minute,Max,Day,Hour,Minute]
8,9,Environment,Site Outdoor Air Dewpoint Temperature [C] !Monthly [Value,Min,Day,Hour,Minute,Max,Day,Hour,Minute]
9,9,Environment,Site Outdoor Air Barometric Pressure [Pa] !Monthly [Value,Min,Day,Hour,Minute,Max,Day,Hour,Minute]
10,9,Environment,Site Wind Speed [m/s] !Monthly [Value,Min,Day,Hour,Minute,Max,Day,Hour,Minute]
11,9,Environment,Site Wind Direction [deg] !Monthly [Value,Min,Day,Hour,Minute,Max,Day,Hour,Minute]
12,9,Environment,Site Diffuse Solar Radiation Rate per Area [W/m2] !Monthly [Value,Min,Day,Hour,Minute,Max,Day,Hour,Minute]
13,9,Environment,Site Direct Solar Radiation Rate per Area [W/m2] !Monthly [Value,Min,Day,Hour,Minute,Max,Day,Hour,Minute]
14,9,Environment,Site Solar Azimuth Angle [deg] !Monthly [Value,Min,Day,Hour,Minute,Max,Day,Hour,Minute]
15,9,Environment,Site Solar Altitude Angle [deg] !Monthly [Value,Min,Day,Hour,Minute,Max,Day,Hour,Minute]
16,9,BLOCK1:ZONE3,Zone Total Internal Latent Gain Energy [J] !Monthly [Value,Min,Day,Hour,Minute,Max,Day,Hour,Minute]
17,9,BLOCK1:ZONE1,Zone Total Internal Latent Gain Energy [J] !Monthly [Value,Min,Day,Hour,Minute,Max,Day,Hour,Minute]
18,9,BLOCK1:ZONE4,Zone Total Internal Latent Gain Energy [J] !Monthly [Value,Min,Day,Hour,Minute,Max,Day,Hour,Minute]
19,9,BLOCK1:ZONE2,Zone Total Internal Latent Gain Energy [J] !Monthly [Value,Min,Day,Hour,Minute,Max,Day,Hour,Minute]
20,9,BLOCK1:ZONE3,Zone People Sensible Heating Rate [W] !Monthly [Value,Min,Day,Hour,Minute,Max,Day,Hour,Minute]
21,9,BLOCK1:ZONE1,Zone People Sensible Heating Rate [W] !Monthly [Value,Min,Day,Hour,Minute,Max,Day,Hour,Minute]
22,9,BLOCK1:ZONE4,Zone People Sensible Heating Rate [W] !Monthly [Value,Min,Day,Hour,Minute,Max,Day,Hour,Minute]
23,9,BLOCK1:ZONE2,Zone People Sensible Heating Rate [W] !Monthly [Value,Min,Day,Hour,Minute,Max,Day,Hour,Minute]
24,9,BLOCK1:ZONE3,Lights Total Heating Rate [W] !Monthly [Value,Min,Day,Hour,Minute,Max,Day,Hour,Minute]
98,9,BLOCK1:ZONE3,Zone Lights Electric Power [W] !Monthly [Value,Min,Day,Hour,Minute,Max,Day,Hour,Minute]
99,9,BLOCK1:ZONE1,Lights Total Heating Rate [W] !Monthly [Value,Min,Day,Hour,Minute,Max,Day,Hour,Minute]
125,9,BLOCK1:ZONE1,Zone Lights Electric Power [W] !Monthly [Value,Min,Day,Hour,Minute,Max,Day,Hour,Minute]
126,9,BLOCK1:ZONE4,Lights Total Heating Rate [W] !Monthly [Value,Min,Day,Hour,Minute,Max,Day,Hour,Minute]
152,9,BLOCK1:ZONE4,Zone Lights Electric Power [W] !Monthly [Value,Min,Day,Hour,Minute,Max,Day,Hour,Minute]
153,9,BLOCK1:ZONE2,Lights Total Heating Rate [W] !Monthly [Value,Min,Day,Hour,Minute,Max,Day,Hour,Minute]
179,9,BLOCK1:ZONE2,Zone Lights Electric Power [W] !Monthly [Value,Min,Day,Hour,Minute,Max,Day,Hour,Minute]
217,9,BLOCK1:ZONE3 EQUIPMENT GAIN 1,Other Equipment Total Heating Rate [W] !Monthly [Value,Min,Day,Hour,Minute,Max,Day,Hour,Minute]
218,9,BLOCK1:ZONE3,Zone Other Equipment Total Heating Rate [W] !Monthly [Value,Min,Day,Hour,Minute,Max,Day,Hour,Minute]
244,9,BLOCK1:ZONE1 EQUIPMENT GAIN 1,Other Equipment Total Heating Rate [W] !Monthly [Value,Min,Day,Hour,Minute,Max,Day,Hour,Minute]
245,9,BLOCK1:ZONE1,Zone Other Equipment Total Heating Rate [W] !Monthly [Value,Min,Day,Hour,Minute,Max,Day,Hour,Minute]
271,9,BLOCK1:ZONE4 EQUIPMENT GAIN 1,Other Equipment Total Heating Rate [W] !Monthly [Value,Min,Day,Hour,Minute,Max,Day,Hour,Minute]
272,9,BLOCK1:ZONE4,Zone Other Equipment Total Heating Rate [W] !Monthly [Value,Min,Day,Hour,Minute,Max,Day,Hour,Minute]
298,9,BLOCK1:ZONE2 EQUIPMENT GAIN 1,Other Equipment Total Heating Rate [W] !Monthly [Value,Min,Day,Hour,Minute,Max,Day,Hour,Minute]
299,9,BLOCK1:ZONE2,Zone Other Equipment Total Heating Rate [W] !Monthly [Value,Min,Day,Hour,Minute,Max,Day,Hour,Minute]
300,9,BLOCK1:ZONE3,Zone Windows Total Transmitted Solar Radiation Rate [W] !Monthly [Value,Min,Day,Hour,Minute,Max,Day,Hour,Minute]
301,9,BLOCK1:ZONE3,Zone Interior Windows Total Transmitted Beam Solar Radiation Rate [W] !Monthly [Value,Min,Day,Hour,Minute,Max,Day,Hour,Minute]
302,9,BLOCK1:ZONE3,Zone Interior Windows Total Transmitted Diffuse Solar Radiation Rate [W] !Monthly [Value,Min,Day,Hour,Minute,Max,Day,Hour,Minute]
303,9,BLOCK1:ZONE1,Zone Windows Total Transmitted Solar Radiation Rate [W] !Monthly [Value,Min,Day,Hour,Minute,Max,Day,Hour,Minute]
304,9,BLOCK1:ZONE1,Zone Interior Windows Total Transmitted Beam Solar Radiation Rate [W] !Monthly [Value,Min,Day,Hour,Minute,Max,Day,Hour,Minute]
305,9,BLOCK1:ZONE1,Zone Interior Windows Total Transmitted Diffuse Solar Radiation Rate [W] !Monthly [Value,Min,Day,Hour,Minute,Max,Day,Hour,Minute]
306,9,BLOCK1:ZONE4,Zone Windows Total Transmitted Solar Radiation Rate [W] !Monthly [Value,Min,Day,Hour,Minute,Max,Day,Hour,Minute]
307,9,BLOCK1:ZONE4,Zone Interior Windows Total Transmitted Beam Solar Radiation Rate [W] !Monthly [Value,Min,Day,Hour,Minute,Max,Day,Hour,Minute]
308,9,BLOCK1:ZONE4,Zone Interior Windows Total Transmitted Diffuse Solar Radiation Rate [W] !Monthly [Value,Min,Day,Hour,Minute,Max,Day,Hour,Minute]
309,9,BLOCK1:ZONE2,Zone Windows Total Transmitted Solar Radiation Rate [W] !Monthly [Value,Min,Day,Hour,Minute,Max,Day,Hour,Minute]
310,9,BLOCK1:ZONE2,Zone Interior Windows Total Transmitted Beam Solar Radiation Rate [W] !Monthly [Value,Min,Day,Hour,Minute,Max,Day,Hour,Minute]
311,9,BLOCK1:ZONE2,Zone Interior Windows Total Transmitted Diffuse Solar Radiation Rate [W] !Monthly [Value,Min,Day,Hour,Minute,Max,Day,Hour,Minute]
312,9,BLOCK1:ZONE3,Zone Mean Radiant Temperature [C] !Monthly [Value,Min,Day,Hour,Minute,Max,Day,Hour,Minute]
313,9,BLOCK1:ZONE1,Zone Mean Radiant Temperature [C] !Monthly [Value,Min,Day,Hour,Minute,Max,Day,Hour,Minute]
314,9,BLOCK1:ZONE4,Zone Mean Radiant Temperature [C] !Monthly [Value,Min,Day,Hour,Minute,Max,Day,Hour,Minute]
315,9,BLOCK1:ZONE2,Zone Mean Radiant Temperature [C] !Monthly [Value,Min,Day,Hour,Minute,Max,Day,Hour,Minute]
316,9,BLOCK1:ZONE3,Zone Mean Air Temperature [C] !Monthly [Value,Min,Day,Hour,Minute,Max,Day,Hour,Minute]
317,9,BLOCK1:ZONE3,Zone Operative Temperature [C] !Monthly [Value,Min,Day,Hour,Minute,Max,Day,Hour,Minute]
318,9,BLOCK1:ZONE1,Zone Mean Air Temperature [C] !Monthly [Value,Min,Day,Hour,Minute,Max,Day,Hour,Minute]
319,9,BLOCK1:ZONE1,Zone Operative Temperature [C] !Monthly [Value,Min,Day,Hour,Minute,Max,Day,Hour,Minute]
320,9,BLOCK1:ZONE4,Zone Mean Air Temperature [C] !Monthly [Value,Min,Day,Hour,Minute,Max,Day,Hour,Minute]
321,9,BLOCK1:ZONE4,Zone Operative Temperature [C] !Monthly [Value,Min,Day,Hour,Minute,Max,Day,Hour,Minute]
322,9,BLOCK1:ZONE2,Zone Mean Air Temperature [C] !Monthly [Value,Min,Day,Hour,Minute,Max,Day,Hour,Minute]
323,9,BLOCK1:ZONE2,Zone Operative Temperature [C] !Monthly [Value,Min,Day,Hour,Minute,Max,Day,Hour,Minute]
324,9,BLOCK1:ZONE3,Zone Infiltration Sensible Heat Loss Energy [J] !Monthly [Value,Min,Day,Hour,Minute,Max,Day,Hour,Minute]
325,9,BLOCK1:ZONE3,Zone Infiltration Sensible Heat Gain Energy [J] !Monthly [Value,Min,Day,Hour,Minute,Max,Day,Hour,Minute]
326,9,BLOCK1:ZONE3,Zone Infiltration Air Change Rate [ach] !Monthly [Value,Min,Day,Hour,Minute,Max,Day,Hour,Minute]
327,9,BLOCK1:ZONE1,Zone Infiltration Sensible Heat Loss Energy [J] !Monthly [Value,Min,Day,Hour,Minute,Max,Day,Hour,Minute]
328,9,BLOCK1:ZONE1,Zone Infiltration Sensible Heat Gain Energy [J] !Monthly [Value,Min,Day,Hour,Minute,Max,Day,Hour,Minute]
329,9,BLOCK1:ZONE1,Zone Infiltration Air Change Rate [ach] !Monthly [Value,Min,Day,Hour,Minute,Max,Day,Hour,Minute]
330,9,BLOCK1:ZONE4,Zone Infiltration Sensible Heat Loss Energy [J] !Monthly [Value,Min,Day,Hour,Minute,Max,Day,Hour,Minute]
331,9,BLOCK1:ZONE4,Zone Infiltration Sensible Heat Gain Energy [J] !Monthly [Value,Min,Day,Hour,Minute,Max,Day,Hour,Minute]
332,9,BLOCK1:ZONE4,Zone Infiltration Air Change Rate [ach] !Monthly [Value,Min,Day,Hour,Minute,Max,Day,Hour,Minute]
333,9,BLOCK1:ZONE2,Zone Infiltration Sensible Heat Loss Energy [J] !Monthly [Value,Min,Day,Hour,Minute,Max,Day,Hour,Minute]
334,9,BLOCK1:ZONE2,Zone Infiltration Sensible Heat Gain Energy [J] !Monthly [Value,Min,Day,Hour,Minute,Max,Day,Hour,Minute]
335,9,BLOCK1:ZONE2,Zone Infiltration Air Change Rate [ach] !Monthly [Value,Min,Day,Hour,Minute,Max,Day,Hour,Minute]
336,9,BLOCK1:ZONE3,Zone Ventilation Sensible Heat Loss Energy [J] !Monthly [Value,Min,Day,Hour,Minute,Max,Day,Hour,Minute]
337,9,BLOCK1:ZONE3,Zone Ventilation Sensible Heat Gain Energy [J] !Monthly [Value,Min,Day,Hour,Minute,Max,Day,Hour,Minute]
338,9,BLOCK1:ZONE3,Zone Ventilation Air Change Rate [ach] !Monthly [Value,Min,Day,Hour,Minute,Max,Day,Hour,Minute]
339,9,BLOCK1:ZONE3,Zone Ventilation Fan Electric Energy [J] !Monthly [Value,Min,Day,Hour,Minute,Max,Day,Hour,Minute]
376,9,BLOCK1:ZONE1,Zone Ventilation Sensible Heat Loss Energy [J] !Monthly [Value,Min,Day,Hour,Minute,Max,Day,Hour,Minute]
377,9,BLOCK1:ZONE1,Zone Ventilation Sensible Heat Gain Energy [J] !Monthly [Value,Min,Day,Hour,Minute,Max,Day,Hour,Minute]
378,9,BLOCK1:ZONE1,Zone Ventilation Air Change Rate [ach] !Monthly [Value,Min,Day,Hour,Minute,Max,Day,Hour,Minute]
379,9,BLOCK1:ZONE1,Zone Ventilation Fan Electric Energy [J] !Monthly [Value,Min,Day,Hour,Minute,Max,Day,Hour,Minute]
392,9,BLOCK1:ZONE4,Zone Ventilation Sensible Heat Loss Energy [J] !Monthly [Value,Min,Day,Hour,Minute,Max,Day,Hour,Minute]
393,9,BLOCK1:ZONE4,Zone Ventilation Sensible Heat Gain Energy [J] !Monthly [Value,Min,Day,Hour,Minute,Max,Day,Hour,Minute]
394,9,BLOCK1:ZONE4,Zone Ventilation Air Change Rate [ach] !Monthly [Value,Min,Day,Hour,Minute,Max,Day,Hour,Minute]
395,9,BLOCK1:ZONE4,Zone Ventilation Fan Electric Energy [J] !Monthly [Value,Min,Day,Hour,Minute,Max,Day,Hour,Minute]
408,9,BLOCK1:ZONE2,Zone Ventilation Sensible Heat Loss Energy [J] !Monthly [Value,Min,Day,Hour,Minute,Max,Day,Hour,Minute]
409,9,BLOCK1:ZONE2,Zone Ventilation Sensible Heat Gain Energy [J] !Monthly [Value,Min,Day,Hour,Minute,Max,Day,Hour,Minute]
410,9,BLOCK1:ZONE2,Zone Ventilation Air Change Rate [ach] !Monthly [Value,Min,Day,Hour,Minute,Max,Day,Hour,Minute]
411,9,BLOCK1:ZONE2,Zone Ventilation Fan Electric Energy [J] !Monthly [Value,Min,Day,Hour,Minute,Max,Day,Hour,Minute]
510,9,BLOCK1:ZONE3,Zone Air System Sensible Heating Rate [W] !Monthly [Value,Min,Day,Hour,Minute,Max,Day,Hour,Minute]
511,9,BLOCK1:ZONE3,Zone Air System Sensible Cooling Rate [W] !Monthly [Value,Min,Day,Hour,Minute,Max,Day,Hour,Minute]
512,9,BLOCK1:ZONE3,Zone Air Relative Humidity [%] !Monthly [Value,Min,Day,Hour,Minute,Max,Day,Hour,Minute]
551,9,BLOCK1:ZONE1,Zone Air System Sensible Heating Rate [W] !Monthly [Value,Min,Day,Hour,Minute,Max,Day,Hour,Minute]
552,9,BLOCK1:ZONE1,Zone Air System Sensible Cooling Rate [W] !Monthly [Value,Min,Day,Hour,Minute,Max,Day,Hour,Minute]
553,9,BLOCK1:ZONE1,Zone Air Relative Humidity [%] !Monthly [Value,Min,Day,Hour,Minute,Max,Day,Hour,Minute]
592,9,BLOCK1:ZONE4,Zone Air System Sensible Heating Rate [W] !Monthly [Value,Min,Day,Hour,Minute,Max,Day,Hour,Minute]
593,9,BLOCK1:ZONE4,Zone Air System Sensible Cooling Rate [W] !Monthly [Value,Min,Day,Hour,Minute,Max,Day,Hour,Minute]
594,9,BLOCK1:ZONE4,Zone Air Relative Humidity [%] !Monthly [Value,Min,Day,Hour,Minute,Max,Day,Hour,Minute]
633,9,BLOCK1:ZONE2,Zone Air System Sensible Heating Rate [W] !Monthly [Value,Min,Day,Hour,Minute,Max,Day,Hour,Minute]
634,9,BLOCK1:ZONE2,Zone Air System Sensible Cooling Rate [W] !Monthly [Value,Min,Day,Hour,Minute,Max,Day,Hour,Minute]
635,9,BLOCK1:ZONE2,Zone Air Relative Humidity [%] !Monthly [Value,Min,Day,Hour,Minute,Max,Day,Hour,Minute]
734,9,DHW BLOCK1:ZONE1,Water Use Equipment Heating Rate [W] !Monthly [Value,Min,Day,Hour,Minute,Max,Day,Hour,Minute]
895,9,Whole Building,Facility Total Produced Electric Energy [J] !Monthly [Value,Min,Day,Hour,Minute,Max,Day,Hour,Minute]
958,9,BLOCK1:ZONE3 IDEAL LOADS AIR,Zone Ideal Loads Supply Air Total Heating Rate [W] !Monthly [Value,Min,Day,Hour,Minute,Max,Day,Hour,Minute]
959,9,BLOCK1:ZONE3 IDEAL LOADS AIR,Zone Ideal Loads Supply Air Sensible Cooling Rate [W] !Monthly [Value,Min,Day,Hour,Minute,Max,Day,Hour,Minute]
960,9,BLOCK1:ZONE3 IDEAL LOADS AIR,Zone Ideal Loads Supply Air Total Cooling Rate [W] !Monthly [Value,Min,Day,Hour,Minute,Max,Day,Hour,Minute]
961,9,BLOCK1:ZONE3 IDEAL LOADS AIR,Zone Ideal Loads Heat Recovery Sensible Heating Rate [W] !Monthly [Value,Min,Day,Hour,Minute,Max,Day,Hour,Minute]
962,9,BLOCK1:ZONE3 IDEAL LOADS AIR,Zone Ideal Loads Heat Recovery Total Heating Rate [W] !Monthly [Value,Min,Day,Hour,Minute,Max,Day,Hour,Minute]
963,9,BLOCK1:ZONE3 IDEAL LOADS AIR,Zone Ideal Loads Heat Recovery Sensible Cooling Rate [W] !Monthly [Value,Min,Day,Hour,Minute,Max,Day,Hour,Minute]
964,9,BLOCK1:ZONE3 IDEAL LOADS AIR,Zone Ideal Loads Heat Recovery Total Cooling Rate [W] !Monthly [Value,Min,Day,Hour,Minute,Max,Day,Hour,Minute]
967,9,BLOCK1:ZONE1 IDEAL LOADS AIR,Zone Ideal Loads Supply Air Total Heating Rate [W] !Monthly [Value,Min,Day,Hour,Minute,Max,Day,Hour,Minute]
968,9,BLOCK1:ZONE1 IDEAL LOADS AIR,Zone Ideal Loads Supply Air Sensible Cooling Rate [W] !Monthly [Value,Min,Day,Hour,Minute,Max,Day,Hour,Minute]
969,9,BLOCK1:ZONE1 IDEAL LOADS AIR,Zone Ideal Loads Supply Air Total Cooling Rate [W] !Monthly [Value,Min,Day,Hour,Minute,Max,Day,Hour,Minute]
970,9,BLOCK1:ZONE1 IDEAL LOADS AIR,Zone Ideal Loads Heat Recovery Sensible Heating Rate [W] !Monthly [Value,Min,Day,Hour,Minute,Max,Day,Hour,Minute]
971,9,BLOCK1:ZONE1 IDEAL LOADS AIR,Zone Ideal Loads Heat Recovery Total Heating Rate [W] !Monthly [Value,Min,Day,Hour,Minute,Max,Day,Hour,Minute]
972,9,BLOCK1:ZONE1 IDEAL LOADS AIR,Zone Ideal Loads Heat Recovery Sensible Cooling Rate [W] !Monthly [Value,Min,Day,Hour,Minute,Max,Day,Hour,Minute]
973,9,BLOCK1:ZONE1 IDEAL LOADS AIR,Zone Ideal Loads Heat Recovery Total Cooling Rate [W] !Monthly [Value,Min,Day,Hour,Minute,Max,Day,Hour,Minute]
976,9,BLOCK1:ZONE4 IDEAL LOADS AIR,Zone Ideal Loads Supply Air Total Heating Rate [W] !Monthly [Value,Min,Day,Hour,Minute,Max,Day,Hour,Minute]
977,9,BLOCK1:ZONE4 IDEAL LOADS AIR,Zone Ideal Loads Supply Air Sensible Cooling Rate [W] !Monthly [Value,Min,Day,Hour,Minute,Max,Day,Hour,Minute]
978,9,BLOCK1:ZONE4 IDEAL LOADS AIR,Zone Ideal Loads Supply Air Total Cooling Rate [W] !Monthly [Value,Min,Day,Hour,Minute,Max,Day,Hour,Minute]
979,9,BLOCK1:ZONE4 IDEAL LOADS AIR,Zone Ideal Loads Heat Recovery Sensible Heating Rate [W] !Monthly [Value,Min,Day,Hour,Minute,Max,Day,Hour,Minute]
980,9,BLOCK1:ZONE4 IDEAL LOADS AIR,Zone Ideal Loads Heat Recovery Total Heating Rate [W] !Monthly [Value,Min,Day,Hour,Minute,Max,Day,Hour,Minute]
981,9,BLOCK1:ZONE4 IDEAL LOADS AIR,Zone Ideal Loads Heat Recovery Sensible Cooling Rate [W] !Monthly [Value,Min,Day,Hour,Minute,Max,Day,Hour,Minute]
982,9,BLOCK1:ZONE4 IDEAL LOADS AIR,Zone Ideal Loads Heat Recovery Total Cooling Rate [W] !Monthly [Value,Min,Day,Hour,Minute,Max,Day,Hour,Minute]
985,9,BLOCK1:ZONE2 IDEAL LOADS AIR,Zone Ideal Loads Supply Air Total Heating Rate [W] !Monthly [Value,Min,Day,Hour,Minute,Max,Day,Hour,Minute]
986,9,BLOCK1:ZONE2 IDEAL LOADS AIR,Zone Ideal Loads Supply Air Sensible Cooling Rate [W] !Monthly [Value,Min,Day,Hour,Minute,Max,Day,Hour,Minute]
987,9,BLOCK1:ZONE2 IDEAL LOADS AIR,Zone Ideal Loads Supply Air Total Cooling Rate [W] !Monthly [Value,Min,Day,Hour,Minute,Max,Day,Hour,Minute]
988,9,BLOCK1:ZONE2 IDEAL LOADS AIR,Zone Ideal Loads Heat Recovery Sensible Heating Rate [W] !Monthly [Value,Min,Day,Hour,Minute,Max,Day,Hour,Minute]
989,9,BLOCK1:ZONE2 IDEAL LOADS AIR,Zone Ideal Loads Heat Recovery Total Heating Rate [W] !Monthly [Value,Min,Day,Hour,Minute,Max,Day,Hour,Minute]
990,9,BLOCK1:ZONE2 IDEAL LOADS AIR,Zone Ideal Loads Heat Recovery Sensible Cooling Rate [W] !Monthly [Value,Min,Day,Hour,Minute,Max,Day,Hour,Minute]
991,9,BLOCK1:ZONE2 IDEAL LOADS AIR,Zone Ideal Loads Heat Recovery Total Cooling Rate [W] !Monthly [Value,Min,Day,Hour,Minute,Max,Day,Hour,Minute]
29,9,Electricity:Facility [J] !Monthly [Value,Min,Day,Hour,Minute,Max,Day,Hour,Minute]
184,9,InteriorEquipment:Electricity [J] !Monthly [Value,Min,Day,Hour,Minute,Max,Day,Hour,Minute]
65,9,InteriorLights:Electricity [J] !Monthly [Value,Min,Day,Hour,Minute,Max,Day,Hour,Minute]
925,9,DistrictCooling:Facility [J] !Monthly [Value,Min,Day,Hour,Minute,Max,Day,Hour,Minute]
739,9,DistrictHeating:Facility [J] !Monthly [Value,Min,Day,Hour,Minute,Max,Day,Hour,Minute]
996,9,Carbon Equivalent:Facility [kg] !Monthly [Value,Min,Day,Hour,Minute,Max,Day,Hour,Minute]
31,11,Electricity:Facility [J] !RunPeriod [Value,Min,Month,Day,Hour,Minute,Max,Month,Day,Hour,Minute]
927,11,DistrictCooling:Facility [J] !RunPeriod [Value,Min,Month,Day,Hour,Minute,Max,Month,Day,Hour,Minute]
741,11,DistrictHeating:Facility [J] !RunPeriod [Value,Min,Month,Day,Hour,Minute,Max,Month,Day,Hour,Minute]
998,11,Carbon Equivalent:Facility [kg] !RunPeriod [Value,Min,Month,Day,Hour,Minute,Max,Month,Day,Hour,Minute]
1019,9,BLOCK1:ZONE3,Zone Mechanical Ventilation Air Changes per Hour [ach] !Monthly [Value,Min,Day,Hour,Minute,Max,Day,Hour,Minute]
1020,9,BLOCK1:ZONE1,Zone Mechanical Ventilation Air Changes per Hour [ach] !Monthly [Value,Min,Day,Hour,Minute,Max,Day,Hour,Minute]
1021,9,BLOCK1:ZONE4,Zone Mechanical Ventilation Air Changes per Hour [ach] !Monthly [Value,Min,Day,Hour,Minute,Max,Day,Hour,Minute]
1022,9,BLOCK1:ZONE2,Zone Mechanical Ventilation Air Changes per Hour [ach] !Monthly [Value,Min,Day,Hour,Minute,Max,Day,Hour,Minute]
End of Data Dictionary
1,LAB_PART1 (O1-O1:31-12),  45.22,   7.65,   1.00, 287.00
4,31, 1
7,1.7827620967741953,-5.8,28, 7,60,12.4,20,16,60
8,-3.0380040359179025,-17.6,25,17,60,3.1,20,16,60
9,97973.4879032258,96100.0,31,19,60,99600.0,10,22,60
10,1.000403225806453,0.0, 1, 1,30,12.9,15, 4,60
11,49.18010752688172,0.0, 1, 1,30,355.0,29,13,30
12,33.50470430107527,0.0, 1, 1,30,219.0,24,13,30
13,62.81182795698925,0.0, 1, 1,30,703.0,25,13,30
14,174.31412188193264,1.6808750584602897, 1, 1,30,340.5020813076715, 1,24,60
15,-17.222660801153745,-67.86463455331843, 1, 1,30,27.128783803429568,31,13,30
16,157279032.73870785,0.0, 1, 1,30,313433.8832947482, 8,21,30
17,118304742.15776035,0.0, 1, 1,30,661848.6662965164,15,10,60
18,378598516.8121287,0.0, 1, 1,30,754358.5348197899, 1,20,30
19,222194904.83783139,0.0, 1, 1,30,442715.7972237821,18,21,30
20,111.43258657014266,0.0, 1, 1,30,335.6030758522523, 7,10,30
21,100.2269906571716,0.0, 1, 1,30,650.6450143503025,28, 8,30
22,268.1661202986688,0.0, 1, 1,30,804.1027423863542, 7,10,30
23,157.37904831282163,0.0, 1, 1,30,471.6802839615501, 7,10,30
24,349.3191182795708,0.0, 1, 1,30,792.358, 1,10,30
98,349.3191182795708,0.0, 1, 1,30,792.358, 1,10,30
99,1168.9203749999966,0.0, 1, 1,30,4007.7270000000005, 1, 8,30
125,1168.9203749999966,0.0, 1, 1,30,4007.7270000000005, 1, 8,30
126,840.7255000000049,0.0, 1, 1,30,1907.0115, 1,10,30
152,840.7255000000049,0.0, 1, 1,30,1907.0115, 1,10,30
153,493.4025967741957,0.0, 1, 1,30,1119.1815, 1,10,30
179,493.4025967741957,0.0, 1, 1,30,1119.1815, 1,10,30
217,237.56254111044019,15.8484277728, 1, 1,30,342.298656, 1, 8,30
218,237.56254111044019,15.848427772800001, 1, 1,30,342.29865600000007, 1, 8,30
244,1730.7132905319209,534.3619969092, 1, 1,30,8090.264904000001, 1, 8,30
245,1730.7132905319209,534.3619969092001, 1, 1,30,8090.264904000001, 1, 8,30
271,571.7548101575733,38.143281218400009, 1, 1,30,823.8289680000002, 1, 8,30
272,571.7548101575733,38.143281218400009, 1, 1,30,823.8289680000003, 1, 8,30
298,335.5498412381697,22.385420690400005, 1, 1,30,483.48640800000006, 1, 8,30
299,335.5498412381697,22.385420690400009, 1, 1,30,483.48640800000006, 1, 8,30
300,55.21147106991728,0.0, 1, 1,30,396.4165609648321,27,15,60
301,0.0,0.0, 1, 1,30,0.0, 1, 1,30
302,0.0,0.0, 1, 1,30,0.0, 1, 1,30
303,27.580170658719454,0.0, 1, 1,30,278.91331029141448,27,11,30
304,0.0,0.0, 1, 1,30,0.0, 1, 1,30
305,0.0,0.0, 1, 1,30,0.0, 1, 1,30
306,238.15476891841153,0.0, 1, 1,30,1965.6624038196454,27,13,30
307,0.0,0.0, 1, 1,30,0.0, 1, 1,30
308,0.0,0.0, 1, 1,30,0.0, 1, 1,30
309,155.27141109044858,0.0, 1, 1,30,1233.6289656142554,27,12,30
310,0.0,0.0, 1, 1,30,0.0, 1, 1,30
311,0.0,0.0, 1, 1,30,0.0, 1, 1,30
312,15.264027728649819,12.62464889006567, 7, 8,30,17.168266391176628,15,16,30
313,15.231541390779979,12.668323488433148, 7, 6,30,18.222382233286415,15,11,30
314,15.469910109557527,12.637954374044222, 7, 8,30,17.70650046244626,15,15,60
315,15.458093717817164,12.65595950970124, 7, 8,30,17.610022319528026,15,15,60
316,15.968026459212926,11.99999999999997,30, 5,60,18.000000000160818,16,16,60
317,15.616027093931379,12.342997157409185, 7, 7,60,17.584133195588309,15,16,30
318,15.571001443468699,12.000000000000004, 7, 5,60,21.615908887261129,15,10,60
319,15.401271417124344,12.388408248352932, 7, 5,60,19.91771066249397,15,10,60
320,15.977721320700843,11.99999999999999, 8, 4,60,18.000000000023225,16,16,60
321,15.723815715129179,12.351328446417359, 7, 7,60,17.85325023122313,15,15,60
322,16.007052494448389,11.999999999999983, 9, 5,60,18.00000000000079,20,16,60
323,15.732573106132766,12.356161759490539, 7, 7,60,17.80501115976401,15,15,60
324,5135235519.553475,68222.87650865942,15, 6,30,5810349.737184316,10,22,60
325,0.0,0.0, 1, 1,10,0.0, 1, 1,10
326,0.7358132954526597,0.704488397183374,15, 6, 3,0.7609221826284426,10,22,60
327,8418749655.218634,154623.11951882844,20,16, 3,9796173.477630122,10,22,60
328,0.0,0.0, 1, 1,10,0.0, 1, 1,10
329,0.7347309624043578,0.7037833920674356,20,16, 3,0.7610658884899292, 5, 7,60
330,12367307416.87371,173970.67825186367,15, 6,30,13984027.942143497,10,22,60
331,0.0,0.0, 1, 1,10,0.0, 1, 1,10
332,0.7358353501052106,0.7049108438066858,15, 6, 3,0.7609043578064741,10,22,60
333,7273049601.922264,103668.41345607597,15, 6,30,8206918.9933563959,10,22,60
334,0.0,0.0, 1, 1,10,0.0, 1, 1,10
335,0.7359106797670116,0.7050335603851111,15, 6, 3,0.760910021237456,10,22,60
336,0.0,0.0, 1, 1,10,0.0, 1, 1,10
337,0.0,0.0, 1, 1,10,0.0, 1, 1,10
338,0.0,0.0, 1, 1,10,0.0, 1, 1,10
339,0.0,0.0, 1, 1,10,0.0, 1, 1,10
376,0.0,0.0, 1, 1,10,0.0, 1, 1,10
377,0.0,0.0, 1, 1,10,0.0, 1, 1,10
378,0.0,0.0, 1, 1,10,0.0, 1, 1,10
379,0.0,0.0, 1, 1,10,0.0, 1, 1,10
392,0.0,0.0, 1, 1,10,0.0, 1, 1,10
393,0.0,0.0, 1, 1,10,0.0, 1, 1,10
394,0.0,0.0, 1, 1,10,0.0, 1, 1,10
395,0.0,0.0, 1, 1,10,0.0, 1, 1,10
408,0.0,0.0, 1, 1,10,0.0, 1, 1,10
409,0.0,0.0, 1, 1,10,0.0, 1, 1,10
410,0.0,0.0, 1, 1,10,0.0, 1, 1,10
411,0.0,0.0, 1, 1,10,0.0, 1, 1,10
510,2186.834960837849,0.0, 1, 1,10,6502.135355887922, 2, 6,60
511,0.0,0.0, 1, 1,10,0.0, 1, 1,10
512,28.76386573303498,7.838729066367642,25,18,29,47.39977116907241, 2, 5,60
551,1998.428488208614,0.0, 1, 1,10,11072.937195606057,13, 6,60
552,115.78920119607175,0.0, 1, 1,10,1708.378928495209,18,10,60
553,28.909633695550438,7.543248003256228,25,18,60,46.51937910403088,31, 5,60
592,4623.041734696431,0.0, 1, 1,10,14578.43349983031, 1, 8,60
593,0.0,0.0, 1, 1,10,0.0, 1, 1,10
594,28.770885800540954,7.823463577640346,25,18,29,47.394791083399109, 2, 5,60
633,2818.8450861075559,0.0, 1, 1,10,8844.423256726748, 1, 8,60
634,0.0,0.0, 1, 1,10,0.0, 1, 1,10
635,28.705331083977656,7.8264382621536099,25,18,29,47.39818318094057, 2, 5,60
734,746.4857393155605,0.0, 1, 1,10,4714.646774624572, 1, 8, 2
895,0.0,0.0, 1, 1,10,0.0, 1, 1,10
958,2412.499461647076,0.0, 1, 1,10,6534.8685025998379,22, 8,16
959,0.0,0.0, 1, 1,10,0.0, 1, 1,10
960,0.0,0.0, 1, 1,10,0.0, 1, 1,10
961,0.0,0.0, 1, 1,10,0.0, 1, 1,10
962,0.0,0.0, 1, 1,10,0.0, 1, 1,10
963,0.0,0.0, 1, 1,10,0.0, 1, 1,10
964,0.0,0.0, 1, 1,10,0.0, 1, 1,10
967,2188.9154095617579,0.0, 1, 1,10,11129.544445199457,10,18,13
968,0.0,0.0, 1, 1,10,0.0, 1, 1,10
969,0.0,0.0, 1, 1,10,0.0, 1, 1,10
970,0.0,0.0, 1, 1,10,0.0, 1, 1,10
971,0.0,0.0, 1, 1,10,0.0, 1, 1,10
972,0.0,0.0, 1, 1,10,0.0, 1, 1,10
973,0.0,0.0, 1, 1,10,0.0, 1, 1,10
976,5164.521511147088,0.0, 1, 1,10,14676.036228618961, 2, 6,37
977,0.0,0.0, 1, 1,10,0.0, 1, 1,10
978,0.0,0.0, 1, 1,10,0.0, 1, 1,10
979,0.0,0.0, 1, 1,10,0.0, 1, 1,10
980,0.0,0.0, 1, 1,10,0.0, 1, 1,10
981,0.0,0.0, 1, 1,10,0.0, 1, 1,10
982,0.0,0.0, 1, 1,10,0.0, 1, 1,10
985,3136.1692447164175,0.0, 1, 1,10,8896.845735644507,23, 6,16
986,0.0,0.0, 1, 1,10,0.0, 1, 1,10
987,0.0,0.0, 1, 1,10,0.0, 1, 1,10
988,0.0,0.0, 1, 1,10,0.0, 1, 1,10
989,0.0,0.0, 1, 1,10,0.0, 1, 1,10
990,0.0,0.0, 1, 1,10,0.0, 1, 1,10
991,0.0,0.0, 1, 1,10,0.0, 1, 1,10
1019,0.06802249109992165,0.0, 1, 1,10,0.2058708460839594,31,21,30
1020,0.04623356334008221,0.0, 1, 1,10,0.29987471609919216,24,10,60
1021,0.06802305699950057,0.0, 1, 1,10,0.205873120340642,31,21,30
1022,0.06802300044637517,0.0, 1, 1,10,0.20587207603278444,31,21,30
29,15341736118.969517,1099330.4278634403, 1, 1,30,31619082.4848, 1,10,30
65,7639781353.199998,0.0, 1, 1,30,14087300.399999999, 1,10,30
184,7701954765.769073,1099330.4278634403, 1, 1,30,17531782.0848, 1, 8,30
739,36556387115.73327,0.0, 1, 1,30,74227130.84170896,27, 6,30
925,0.0,0.0, 1, 1,30,0.0, 1, 1,30
996,0.0,0.0, 1, 1,30,0.0, 1, 1,30
4,59, 2
7,3.853980654761904,-5.6,21, 7,60,15.4,24,16,60
8,-1.037127991181103,-16.6,17,21,60,6.6,27,17,60
9,99064.17410714286,97600.0, 4,18,60,100000.0,27, 9,60
10,0.40059523809523819,0.0, 1, 1,30,15.4,16,19,60
11,27.8125,0.0, 1, 1,30,355.0,17, 7,30
12,54.64136904761905,0.0, 1, 1,30,273.0,20,13,30
13,81.82886904761905,0.0, 1, 1,30,655.0,21,13,30
14,173.18682631950748,4.999299580835944,28, 1,30,342.93251137827778,28,24,60
15,-10.800425295488925,-61.95417122411706, 1, 1,30,36.48412919260253,28,13,30
16,141643039.22645674,0.0, 1, 1,30,313433.8832947451,20,22,60
17,108757523.28459899,0.0, 1, 1,30,627388.7151800694,27,10,60
18,340926137.38042536,0.0, 1, 1,30,760744.3172839396, 5,17,30
19,200078019.45859484,0.0, 1, 1,30,443070.71584835977, 5,17,30
20,111.07167488051694,0.0, 1, 1,30,330.86469628276486,19,10,30
21,99.44093446417152,0.0, 1, 1,30,650.1009813226895,21, 8,30
22,267.3115263655237,0.0, 1, 1,30,795.7188904148934,19,10,30
23,156.8805784261803,0.0, 1, 1,30,466.81854989336235,19,10,30
24,349.0148333333339,0.0, 1, 1,30,792.358, 1, 8,30
98,349.0148333333339,0.0, 1, 1,30,792.358, 1, 8,30
99,1168.9203749999975,0.0, 1, 1,30,4007.7270000000005, 1, 8,30
125,1168.9203749999975,0.0, 1, 1,30,4007.7270000000005, 1, 8,30
126,839.9931607142901,0.0, 1, 1,30,1907.0115, 1, 8,30
152,839.9931607142901,0.0, 1, 1,30,1907.0115, 1, 8,30
153,492.97280357143065,0.0, 1, 1,30,1119.1815, 1, 8,30
179,492.97280357143065,0.0, 1, 1,30,1119.1815, 1, 8,30
217,237.56254111043985,15.8484277728, 1, 1,30,342.298656, 1, 8,30
218,237.56254111043985,15.848427772800001, 1, 1,30,342.29865600000007, 1, 8,30
244,1730.7132905319236,534.3619969092, 1, 1,30,8090.264904000001, 1, 8,30
245,1730.7132905319236,534.3619969092001, 1, 1,30,8090.264904000001, 1, 8,30
271,571.7548101575719,38.143281218400009, 1, 1,30,823.8289680000002, 1, 8,30
272,571.7548101575719,38.143281218400009, 1, 1,30,823.8289680000003, 1, 8,30
298,335.5498412381697,22.385420690400005, 1, 1,30,483.48640800000006, 1, 8,30
299,335.5498412381697,22.385420690400009, 1, 1,30,483.48640800000006, 1, 8,30
300,91.54917729713124,0.0, 1, 1,30,487.7418965882759,24,15,60
301,0.0,0.0, 1, 1,30,0.0, 1, 1,30
302,0.0,0.0, 1, 1,30,0.0, 1, 1,30
303,42.1358269060574,0.0, 1, 1,30,334.2677136780205,24,10,60
304,0.0,0.0, 1, 1,30,0.0, 1, 1,30
305,0.0,0.0, 1, 1,30,0.0, 1, 1,30
306,326.8935605402442,0.0, 1, 1,30,1929.5644732771662,22,14,30
307,0.0,0.0, 1, 1,30,0.0, 1, 1,30
308,0.0,0.0, 1, 1,30,0.0, 1, 1,30
309,212.30202631673945,0.0, 1, 1,30,1242.4744455710923,24,12,30
310,0.0,0.0, 1, 1,30,0.0, 1, 1,30
311,0.0,0.0, 1, 1,30,0.0, 1, 1,30
312,15.798443092529789,12.96366801857527,19, 8,30,17.70641798510238,26,16,60
313,15.93834879973048,12.926307255124124,21, 6,30,18.221363073243194,27,10,60
314,16.038680034826233,13.098055703546374,19, 8,30,18.097313400096718,26,16,60
315,16.033709599805275,13.141610953469265,19, 8,30,18.0097078883969,26,16,60
316,16.237282221377,11.999999999999999, 4, 7,60,18.127245487932748,24,16,30
317,16.017862656953406,12.506553698108587,19, 7,60,17.85320899255119,26,16,60
318,16.132212194971339,12.000000000000036,21, 5,60,20.913030372001484,27,10,60
319,16.035280497350933,12.523180192618776,21, 5,60,19.567196722622339,27,10,60
320,16.255014384612275,12.000000000000002,12, 7,60,18.175187675347567,24,16,60
321,16.146847209719259,12.576561713125784,19, 7,60,18.09911772222556,24,16,60
322,16.291343645810757,11.999999999999979,18, 7,60,18.136584173527138,24,16,60
323,16.162526622808,12.595094262369978,19, 7,60,18.036065653454338,24,16,60
324,4069370532.8686277,113668.33987759098, 1,16, 3,5466663.150550718, 8, 8,60
325,0.0,0.0, 1, 1, 3,0.0, 1, 1, 3
326,0.7309660302785448,0.7028146818754503,24,13,45,0.7599200718274833,21, 7,60
327,6805702342.919576,153082.14120515335, 1,16, 3,9217139.68499439, 8, 8,60
328,0.0,0.0, 1, 1, 3,0.0, 1, 1, 3
329,0.7306305172912436,0.7013046033358137,24,16, 7,0.7605774147465185,21, 7,60
330,9807345687.420472,290560.4313923671, 1,16, 3,13156924.557548766, 8, 8,60
331,0.0,0.0, 1, 1, 3,0.0, 1, 1, 3
332,0.7310072029824539,0.7033073879313599,24,16, 7,0.7600787782594021,21, 7,60
333,5772572264.354995,170648.989882773, 1,16, 3,7721517.896990189, 8, 8,60
334,0.0,0.0, 1, 1, 3,0.0, 1, 1, 3
335,0.731100215264797,0.7033046109276469,24,16, 7,0.7600979406358644,21, 7,60
336,0.0,0.0, 1, 1, 3,0.0, 1, 1, 3
337,0.0,0.0, 1, 1, 3,0.0, 1, 1, 3
338,0.0,0.0, 1, 1, 3,0.0, 1, 1, 3
339,0.0,0.0, 1, 1, 3,0.0, 1, 1, 3
376,0.0,0.0, 1, 1, 3,0.0, 1, 1, 3
377,0.0,0.0, 1, 1, 3,0.0, 1, 1, 3
378,0.0,0.0, 1, 1, 3,0.0, 1, 1, 3
379,0.0,0.0, 1, 1, 3,0.0, 1, 1, 3
392,0.0,0.0, 1, 1, 3,0.0, 1, 1, 3
393,0.0,0.0, 1, 1, 3,0.0, 1, 1, 3