Program Version,EnergyPlus, Version 9.0.1-bb7ca4f0da, YMD=2021.01.02 20:24
1,5,Environment Title[],Latitude[deg],Longitude[deg],Time Zone[],Elevation[m]
2,8,Day of Simulation[],Month[],Day of Month[],DST Indicator[1=yes 0=no],Hour[],StartMinute[],EndMinute[],DayType
3,5,Cumulative Day of Simulation[],Month[],Day of Month[],DST Indicator[1=yes 0=no],DayType  ! When Daily Meters Requested
4,2,Cumulative Days of Simulation[],Month[]  ! When Monthly Meters Requested
5,1,Cumulative Days of Simulation[] ! When Run Period Meters Requested
6,1,Calendar Year of Simulation[] ! When Annual Meters Requested
29,9,Electricity:Facility [J] !Monthly [Value,Min,Day,Hour,Minute,Max,Day,Hour,Minute]
184,9,InteriorEquipment:Electricity [J] !Monthly [Value,Min,Day,Hour,Minute,Max,Day,Hour,Minute]
65,9,InteriorLights:Electricity [J] !Monthly [Value,Min,Day,Hour,Minute,Max,Day,Hour,Minute]
925,9,DistrictCooling:Facility [J] !Monthly [Value,Min,Day,Hour,Minute,Max,Day,Hour,Minute]
739,9,DistrictHeating:Facility [J] !Monthly [Value,Min,Day,Hour,Minute,Max,Day,Hour,Minute]
996,9,Carbon Equivalent:Facility [kg] !Monthly [Value,Min,Day,Hour,Minute,Max,Day,Hour,Minute]
31,11,Electricity:Facility [J] !RunPeriod [Value,Min,Month,Day,Hour,Minute,Max,Month,Day,Hour,Minute]
927,11,DistrictCooling:Facility [J] !RunPeriod [Value,Min,Month,Day,Hour,Minute,Max,Month,Day,Hour,Minute]
741,11,DistrictHeating:Facility [J] !RunPeriod [Value,Min,Month,Day,Hour,Minute,Max,Month,Day,Hour,Minute]
998,11,Carbon Equivalent:Facility [kg] !RunPeriod [Value,Min,Month,Day,Hour,Minute,Max,Month,Day,Hour,Minute]
End of Data Dictionary
1,LAB_PART1 (O1-O1:31-12),  45.22,   7.65,   1.00, 287.00
4,31, 1
29,15341736118.969517,1099330.4278634403, 1, 1,30,31619082.4848, 1,10,30
65,7639781353.199998,0.0, 1, 1,30,14087300.399999999, 1,10,30
184,7701954765.769073,1099330.4278634403, 1, 1,30,17531782.0848, 1, 8,30
739,36556387115.73327,0.0, 1, 1,30,74227130.84170896,27, 6,30
925,0.0,0.0, 1, 1,30,0.0, 1, 1,30
996,0.0,0.0, 1, 1,30,0.0, 1, 1,30
4,59, 2
29,13853504421.365965,1099330.4278634403, 1, 1,30,31619082.4848, 1, 8,30
65,6896900116.80001,0.0, 1, 1,30,14087300.399999999, 1, 8,30
184,6956604304.565627,1099330.4278634403, 1, 1,30,17531782.0848, 1, 8,30
739,25265169561.676866,0.0, 1, 1,30,74227130.84170917,21, 6,30
925,0.0,0.0, 1, 1,30,0.0, 1, 1,30
996,0.0,0.0, 1, 1,30,0.0, 1, 1,30
4,90, 3
29,15314242551.769518,1099330.4278634403, 1, 1,30,31619082.4848, 1, 8,30
65,7612287785.999997,0.0, 1, 1,30,14087300.399999999, 1, 8,30
184,7701954765.769073,1099330.4278634403, 1, 1,30,17531782.0848, 1, 8,30
739,14340316333.402733,0.0, 1, 1,30,71585072.76141984, 3, 6,30
925,0.0,0.0, 1, 1,30,0.0, 1, 1,30
996,0.0,0.0, 1, 1,30,0.0, 1, 1,30
4,120, 4
29,14882316976.035,1099330.4278634403, 1, 1,30,31619082.4848, 1, 9,30
65,7428812364.000004,0.0, 1, 1,30,14087300.399999999, 1, 9,30
184,7453504612.034591,1099330.4278634403, 1, 1,30,17531782.0848, 1, 7,30
739,5427685822.573569,0.0, 1, 1,30,57215207.422577429,17, 5,30
925,0.0,0.0, 1, 1,30,0.0, 1, 1,30
996,0.0,0.0, 1, 1,30,0.0, 1, 1,30
4,151, 5
29,15314242551.769518,1099330.4278634403, 1, 1,30,31619082.4848, 1, 7,30
65,7612287785.999999,0.0, 1, 1,30,14087300.399999999, 1, 7,30
184,7701954765.769073,1099330.4278634403, 1, 1,30,17531782.0848, 1, 7,30
739,2362052084.5714156,0.0, 1, 1,30,24686712.167040357,16, 5,30
925,783207215.8123691,0.0, 1, 1,30,23140981.661236589,29,17,30
996,0.0,0.0, 1, 1,30,0.0, 1, 1,30
4,181, 6
29,14827329841.635024,1099330.4278634403, 1, 1,30,31619082.4848, 1, 7,30
65,7373825229.599995,0.0, 1, 1,30,14087300.399999999, 1, 7,30
184,7453504612.034591,1099330.4278634403, 1, 1,30,17531782.0848, 1, 7,30
739,1950012448.9323042,0.0, 1, 1,30,8486364.19432423, 1, 7,30
925,5168494986.649164,0.0, 1, 1,30,50419631.60967662,29,19,30
996,0.0,0.0, 1, 1,30,0.0, 1, 1,30
4,212, 7
29,15369229686.169518,1099330.4278634403, 1, 1,30,31619082.4848, 1, 9,30
65,7667274920.4,0.0, 1, 1,30,14087300.399999999, 1, 9,30
184,7701954765.769073,1099330.4278634403, 1, 1,30,17531782.0848, 1, 7,30
739,1999387404.182785,0.0, 1, 1,30,8486364.194324229, 1, 7,30
925,20091428878.443918,0.0, 1, 1,30,73109433.57886164,22,17,30
996,0.0,0.0, 1, 1,30,0.0, 1, 1,30
4,243, 8
29,15314242551.769516,1099330.4278634403, 1, 1,30,31619082.4848, 1, 7,30
65,7612287786.0,0.0, 1, 1,30,14087300.399999999, 1, 7,30
184,7701954765.769073,1099330.4278634403, 1, 1,30,17531782.0848, 1, 7,30
739,1999387404.182785,0.0, 1, 1,30,8486364.194324229, 1, 7,30
925,15084448226.370789,0.0, 1, 1,30,72280130.15907477, 3,17,30
996,0.0,0.0, 1, 1,30,0.0, 1, 1,30
4,273, 9
29,14854823408.83502,1099330.4278634403, 1, 1,30,31619082.4848, 1, 7,30
65,7401318796.799996,0.0, 1, 1,30,14087300.399999999, 1, 7,30
184,7453504612.034591,1099330.4278634403, 1, 1,30,17531782.0848, 1, 7,30
739,1939728511.3230499,0.0, 1, 1,30,9318868.39453367,30, 7,30
925,848304921.0536321,0.0, 1, 1,30,16631399.045706522, 7,17,30
996,0.0,0.0, 1, 1,30,0.0, 1, 1,30
4,304,10
29,15341736118.969519,1099330.4278634403, 1, 1,30,31619082.4848, 1, 9,30
65,7639781353.199998,0.0, 1, 1,30,14087300.399999999, 1, 9,30
184,7701954765.769073,1099330.4278634403, 1, 1,30,17531782.0848, 1, 7,30
739,5220413477.468969,0.0, 1, 1,30,52540069.29803769,31, 6,30
925,0.0,0.0, 1, 1,30,0.0, 1, 1,30
996,0.0,0.0, 1, 1,30,0.0, 1, 1,30
4,334,11
29,14827329841.635,1099330.4278634403, 1, 1,30,31619082.4848, 1, 8,30
65,7373825229.600001,0.0, 1, 1,30,14087300.399999999, 1, 8,30
184,7453504612.034591,1099330.4278634403, 1, 1,30,17531782.0848, 1, 8,30
739,20816728141.09883,0.0, 1, 1,30,74227130.84170917,24, 6,30
925,0.0,0.0, 1, 1,30,0.0, 1, 1,30
996,0.0,0.0, 1, 1,30,0.0, 1, 1,30
4,365,12
29,15369229686.169518,1099330.4278634403, 1, 1,30,31619082.4848, 1, 8,30
65,7667274920.400001,0.0, 1, 1,30,14087300.399999999, 1, 8,30
184,7701954765.769073,1099330.4278634403, 1, 1,30,17531782.0848, 1, 8,30
739,34018873831.625185,0.0, 1, 1,30,74227130.84170912,29, 6,30
925,0.0,0.0, 1, 1,30,0.0, 1, 1,30
996,0.0,0.0, 1, 1,30,0.0, 1, 1,30
5,365
31,180609963755.08219,1099330.4278634403, 1, 1, 1,30,31619082.4848, 1, 1,10,30
741,151896142136.77226,0.0, 1, 1, 1,30,74227130.84170917, 2,21, 6,30
927,41975884228.329837,0.0, 1, 1, 1,30,73109433.57886164, 7,22,17,30
998,0.0,0.0, 1, 1, 1,30,0.0, 1, 1, 1,30
End of Data
 Number of Records Written=          76
